  python dir          : /nv/hp13/yzhang3027/dev/espresso
  espresso dir        : /nv/hp22/amedford6/medford-shared/builds/espresso/5.1.r11289-pybeef/intel-16.0+mvapich2-2.2+mkl-11.3/espresso-5.1.r11289-pybeef/bin
  pseudo dir          : /gpfs/pace1/project/chbe-medford/medford-share/data/pseudos/SSSP_eff_PBE
  ase-espresso py git : GITVERSION



     Program PWSCF v.5.1rc2 starts on 20Sep2017 at 13:24:49 

     This program is part of the open-source Quantum ESPRESSO suite
     for quantum simulation of materials; please cite
         "P. Giannozzi et al., J. Phys.:Condens. Matter 21 395502 (2009);
          URL http://www.quantum-espresso.org", 
     in publications or presentations arising from this work. More details at
     http://www.quantum-espresso.org/quote

     Parallel version (MPI), running on    14 processors
     R & G space division:  proc/nbgrp/npool/nimage =      14
     Reading input from pw.inp
     Message from routine read_cards :
     DEPRECATED: no units specified in CELL_PARAMETERS card

     Current dimensions of program PWSCF are:
     Max number of different atomic species (ntypx) = 10
     Max number of k-points (npk) =  40000
     Max angular momentum in pseudopotentials (lmaxx) =  3

     IMPORTANT: XC functional enforced from input :
     Exchange-correlation      = PBE ( 1  4  3  4 0)
     Any further DFT definition will be discarded
     Please, verify this is what you really want


     Subspace diagonalization in iterative solution of the eigenvalue problem:
     a serial algorithm will be used

     Found symmetry operation: I + (  0.0000 -0.5000  0.0000)
     This is a supercell, fractional translations are disabled
 
     Parallelization info
     --------------------
     sticks:   dense  smooth     PW     G-vecs:    dense   smooth      PW
     Min         179      71     21                18955     4786     769
     Max         180      72     22                18964     4810     776
     Sum        2515    1003    301               265437    67175   10819
 


     bravais-lattice index     =            0
     lattice parameter (alat)  =       1.8897  a.u.
     unit-cell volume          =    2613.7026 (a.u.)^3
     number of atoms/cell      =           12
     number of atomic types    =            1
     number of electrons       =       192.00
     number of Kohn-Sham states=          106
     kinetic-energy cutoff     =      33.0744  Ry
     charge density cutoff     =     330.7439  Ry
     convergence threshold     =      7.3E-08
     mixing beta               =       0.0500
     number of iterations used =            8  local-TF  mixing
     Exchange-correlation      = PBE ( 1  4  3  4 0)
     nstep                     =           50


     celldm(1)=   1.889726  celldm(2)=   0.000000  celldm(3)=   0.000000
     celldm(4)=   0.000000  celldm(5)=   0.000000  celldm(6)=   0.000000

     crystal axes: (cart. coord. in units of alat)
               a(1) = (   5.547960   0.000000   0.000000 )  
               a(2) = (  -2.773980   4.804674   0.000000 )  
               a(3) = (   0.000000   0.000000  14.529890 )  

     reciprocal axes: (cart. coord. in units 2 pi/alat)
               b(1) = (  0.180246  0.104065  0.000000 )  
               b(2) = (  0.000000  0.208131  0.000000 )  
               b(3) = (  0.000000  0.000000  0.068824 )  


     PseudoPot. # 1 for Pt read from file:
     /gpfs/pace1/project/chbe-medford/medford-share/data/pseudos/SSSP_eff_PBE/Pt.UPF
     MD5 check sum: f09d6de1a584b5a045c4fc126da2d0c4
     Pseudo is Ultrasoft + core correction, Zval = 16.0
     Generated by new atomic code, or converted to UPF format
     Using radial grid of  985 points,  6 beta functions with: 
                l(1) =   0
                l(2) =   0
                l(3) =   1
                l(4) =   1
                l(5) =   2
                l(6) =   2
     Q(r) pseudized with  8 coefficients,  rinner =    1.300   1.300   1.300
                                                       1.300   1.300

     atomic species   valence    mass     pseudopotential
        Pt1           16.00   195.08000     Pt( 1.00)

      6 Sym. Ops. (no inversion) found



   Cartesian axes

     site n.     atom                  positions (alat units)
         1           Pt1 tau(   1) = (   0.0000000   0.0000000   5.0000000  )
         2           Pt1 tau(   2) = (  -1.3869900   2.4023371   5.0000000  )
         3           Pt1 tau(   3) = (   1.3869900   2.4023371   5.0000000  )
         4           Pt1 tau(   4) = (   2.7739799   0.0000000   5.0000000  )
         5           Pt1 tau(   5) = (   2.7739799   1.6015580   7.2649451  )
         6           Pt1 tau(   6) = (   1.3869900   4.0038951   7.2649451  )
         7           Pt1 tau(   7) = (  -1.3869900   4.0038951   7.2649451  )
         8           Pt1 tau(   8) = (   0.0000000   1.6015580   7.2649451  )
         9           Pt1 tau(   9) = (   0.0000000   3.2031161   9.5298902  )
        10           Pt1 tau(  10) = (   1.3869900   0.8007790   9.5298902  )
        11           Pt1 tau(  11) = (   4.1609699   0.8007790   9.5298902  )
        12           Pt1 tau(  12) = (   2.7739799   3.2031161   9.5298902  )

     number of k points=    18  Fermi-Dirac smearing, width (Ry)=  0.0073
                       cart. coord. in units 2pi/alat
        k(    1) = (   0.0000000   0.0000000   0.0000000), wk =   0.0571429
        k(    2) = (   0.0000000   0.0297330   0.0000000), wk =   0.1142857
        k(    3) = (   0.0000000   0.0594659   0.0000000), wk =   0.1142857
        k(    4) = (   0.0000000   0.0891989   0.0000000), wk =   0.1142857
        k(    5) = (   0.0360493   0.0208131   0.0000000), wk =   0.1142857
        k(    6) = (   0.0360493   0.0505460   0.0000000), wk =   0.1142857
        k(    7) = (   0.0360493   0.0802790   0.0000000), wk =   0.1142857
        k(    8) = (   0.0360493   0.1100119   0.0000000), wk =   0.1142857
        k(    9) = (   0.0360493  -0.0683858   0.0000000), wk =   0.1142857
        k(   10) = (   0.0360493  -0.0386528   0.0000000), wk =   0.1142857
        k(   11) = (   0.0360493  -0.0089199   0.0000000), wk =   0.1142857
        k(   12) = (   0.0720986   0.0416261   0.0000000), wk =   0.1142857
        k(   13) = (   0.0720986   0.0713591   0.0000000), wk =   0.1142857
        k(   14) = (   0.0720986   0.1010920   0.0000000), wk =   0.1142857
        k(   15) = (   0.0720986   0.1308250   0.0000000), wk =   0.1142857
        k(   16) = (   0.0720986  -0.0475727   0.0000000), wk =   0.1142857
        k(   17) = (   0.0720986  -0.0178398   0.0000000), wk =   0.1142857
        k(   18) = (   0.0720986   0.0118932   0.0000000), wk =   0.1142857

     Dense  grid:   265437 G-vectors     FFT dimensions: (  64,  64, 160)

     Smooth grid:    67175 G-vectors     FFT dimensions: (  40,  40, 108)

     Largest allocated arrays     est. size (Mb)     dimensions
        Kohn-Sham Wavefunctions         1.00 Mb     (     619,  106)
        NL pseudopotentials             2.04 Mb     (     619,  216)
        Each V/rho on FFT grid          0.75 Mb     (   49152)
        Each G-vector array             0.14 Mb     (   18964)
        G-vector shells                 0.05 Mb     (    7066)
     Largest temporary arrays     est. size (Mb)     dimensions
        Each subspace H/S matrix        0.17 Mb     (     106,  106)
        Each <psi_i|beta_j> matrix      0.35 Mb     (     216,  106)
        Arrays for rho mixing           6.00 Mb     (   49152,    8)

     Initial potential from superposition of free atoms
     Check: negative starting charge=   -2.207876

     starting charge  185.99986, renormalised to  192.00000

     negative rho (up, down):  2.279E+00 0.000E+00
     Starting wfc are  144 randomized atomic wfcs

     total cpu time spent up to now is       72.6 secs

     per-process dynamical memory:    47.1 Mb

     Self-consistent Calculation

     iteration #  1     ecut=    33.07 Ry     beta=0.05
     CG style diagonalization
     ethr =  1.00E-02,  avg # of iterations =  2.4

     negative rho (up, down):  2.268E+00 0.000E+00

     total cpu time spent up to now is       82.6 secs

     total energy              =   -2531.55356969 Ry
     Harris-Foulkes estimate   =   -2531.96140159 Ry
     estimated scf accuracy    <      16.88131032 Ry

     iteration #  2     ecut=    33.07 Ry     beta=0.05
     CG style diagonalization
     ethr =  8.79E-03,  avg # of iterations =  3.0

     negative rho (up, down):  2.051E+00 0.000E+00

     total cpu time spent up to now is       93.3 secs

     total energy              =   -2522.60762298 Ry
     Harris-Foulkes estimate   =   -2531.63270457 Ry
     estimated scf accuracy    <      16.24951118 Ry

     iteration #  3     ecut=    33.07 Ry     beta=0.05
     CG style diagonalization
     ethr =  8.46E-03,  avg # of iterations =  3.9

     negative rho (up, down):  2.186E+00 0.000E+00

     total cpu time spent up to now is      106.7 secs

     total energy              =   -2525.38130745 Ry
     Harris-Foulkes estimate   =   -2531.31675285 Ry
     estimated scf accuracy    <      12.24844853 Ry

     iteration #  4     ecut=    33.07 Ry     beta=0.05
     CG style diagonalization
     ethr =  6.38E-03,  avg # of iterations =  3.6

     negative rho (up, down):  2.200E+00 0.000E+00

     total cpu time spent up to now is      119.4 secs

     total energy              =   -2528.35408879 Ry
     Harris-Foulkes estimate   =   -2528.20728090 Ry
     estimated scf accuracy    <       0.86378327 Ry

     iteration #  5     ecut=    33.07 Ry     beta=0.05
     CG style diagonalization
     ethr =  4.50E-04,  avg # of iterations =  3.4

     negative rho (up, down):  2.207E+00 0.000E+00

     total cpu time spent up to now is      131.5 secs

     total energy              =   -2528.19172947 Ry
     Harris-Foulkes estimate   =   -2528.46868769 Ry
     estimated scf accuracy    <       1.58804399 Ry

     iteration #  6     ecut=    33.07 Ry     beta=0.05
     CG style diagonalization
     ethr =  4.50E-04,  avg # of iterations =  3.0

     negative rho (up, down):  2.253E+00 0.000E+00

     total cpu time spent up to now is      141.9 secs

     total energy              =   -2527.91131211 Ry
     Harris-Foulkes estimate   =   -2528.21394624 Ry
     estimated scf accuracy    <       0.89671054 Ry

     iteration #  7     ecut=    33.07 Ry     beta=0.05
     CG style diagonalization
     ethr =  4.50E-04,  avg # of iterations =  3.3

     negative rho (up, down):  2.255E+00 0.000E+00

     total cpu time spent up to now is      153.5 secs

     total energy              =   -2527.99805393 Ry
     Harris-Foulkes estimate   =   -2528.00855416 Ry
     estimated scf accuracy    <       0.09122832 Ry

     iteration #  8     ecut=    33.07 Ry     beta=0.05
     CG style diagonalization
     ethr =  4.75E-05,  avg # of iterations =  3.4

     negative rho (up, down):  2.253E+00 0.000E+00

     total cpu time spent up to now is      165.9 secs

     total energy              =   -2528.00316749 Ry
     Harris-Foulkes estimate   =   -2528.00764544 Ry
     estimated scf accuracy    <       0.05425179 Ry

     iteration #  9     ecut=    33.07 Ry     beta=0.05
     CG style diagonalization
     ethr =  2.83E-05,  avg # of iterations =  3.0

     negative rho (up, down):  2.284E+00 0.000E+00

     total cpu time spent up to now is      176.6 secs

     total energy              =   -2527.99147600 Ry
     Harris-Foulkes estimate   =   -2528.00432727 Ry
     estimated scf accuracy    <       0.04162767 Ry

     iteration # 10     ecut=    33.07 Ry     beta=0.05
     CG style diagonalization
     ethr =  2.17E-05,  avg # of iterations =  3.4

     negative rho (up, down):  2.283E+00 0.000E+00

     total cpu time spent up to now is      188.4 secs

     total energy              =   -2527.99249794 Ry
     Harris-Foulkes estimate   =   -2527.99628375 Ry
     estimated scf accuracy    <       0.05495435 Ry

     iteration # 11     ecut=    33.07 Ry     beta=0.05
     CG style diagonalization
     ethr =  2.17E-05,  avg # of iterations =  3.0

     negative rho (up, down):  2.257E+00 0.000E+00

     total cpu time spent up to now is      199.2 secs

     total energy              =   -2527.99070266 Ry
     Harris-Foulkes estimate   =   -2527.99375825 Ry
     estimated scf accuracy    <       0.04401355 Ry

     iteration # 12     ecut=    33.07 Ry     beta=0.05
     CG style diagonalization
     ethr =  2.17E-05,  avg # of iterations =  3.0

     negative rho (up, down):  2.216E+00 0.000E+00

     total cpu time spent up to now is      209.7 secs

     total energy              =   -2527.98826230 Ry
     Harris-Foulkes estimate   =   -2527.99103469 Ry
     estimated scf accuracy    <       0.04904276 Ry

     iteration # 13     ecut=    33.07 Ry     beta=0.05
     CG style diagonalization
     ethr =  2.17E-05,  avg # of iterations =  3.0

     negative rho (up, down):  2.157E+00 0.000E+00

     total cpu time spent up to now is      220.0 secs

     total energy              =   -2527.99069094 Ry
     Harris-Foulkes estimate   =   -2527.98908541 Ry
     estimated scf accuracy    <       0.02300102 Ry

     iteration # 14     ecut=    33.07 Ry     beta=0.05
     CG style diagonalization
     c_bands:  1 eigenvalues not converged
     ethr =  1.20E-05,  avg # of iterations =  3.3

     negative rho (up, down):  2.116E+00 0.000E+00

     total cpu time spent up to now is      231.7 secs

     total energy              =   -2527.98446854 Ry
     Harris-Foulkes estimate   =   -2527.99273735 Ry
     estimated scf accuracy    <       0.03310199 Ry

     iteration # 15     ecut=    33.07 Ry     beta=0.05
     CG style diagonalization
     c_bands:  1 eigenvalues not converged
     ethr =  1.20E-05,  avg # of iterations =  3.1

     negative rho (up, down):  2.082E+00 0.000E+00

     total cpu time spent up to now is      242.7 secs

     total energy              =   -2527.98046368 Ry
     Harris-Foulkes estimate   =   -2527.98525703 Ry
     estimated scf accuracy    <       0.01446597 Ry

     iteration # 16     ecut=    33.07 Ry     beta=0.05
     CG style diagonalization
     c_bands:  1 eigenvalues not converged
     ethr =  7.53E-06,  avg # of iterations =  3.2

     negative rho (up, down):  2.093E+00 0.000E+00

     total cpu time spent up to now is      253.7 secs

     total energy              =   -2527.98192689 Ry
     Harris-Foulkes estimate   =   -2527.98165068 Ry
     estimated scf accuracy    <       0.00282680 Ry

     iteration # 17     ecut=    33.07 Ry     beta=0.05
     CG style diagonalization
     ethr =  1.47E-06,  avg # of iterations =  3.1

     negative rho (up, down):  2.093E+00 0.000E+00

     total cpu time spent up to now is      264.8 secs

     total energy              =   -2527.98137409 Ry
     Harris-Foulkes estimate   =   -2527.98213325 Ry
     estimated scf accuracy    <       0.00384049 Ry

     iteration # 18     ecut=    33.07 Ry     beta=0.05
     CG style diagonalization
     ethr =  1.47E-06,  avg # of iterations =  3.0

     negative rho (up, down):  2.094E+00 0.000E+00

     total cpu time spent up to now is      275.5 secs

     total energy              =   -2527.98094665 Ry
     Harris-Foulkes estimate   =   -2527.98147415 Ry
     estimated scf accuracy    <       0.00174570 Ry

     iteration # 19     ecut=    33.07 Ry     beta=0.05
     CG style diagonalization
     ethr =  9.09E-07,  avg # of iterations =  3.3

     negative rho (up, down):  2.097E+00 0.000E+00

     total cpu time spent up to now is      287.3 secs

     total energy              =   -2527.98118119 Ry
     Harris-Foulkes estimate   =   -2527.98114651 Ry
     estimated scf accuracy    <       0.00045467 Ry

     iteration # 20     ecut=    33.07 Ry     beta=0.05
     CG style diagonalization
     ethr =  2.37E-07,  avg # of iterations =  4.3

     negative rho (up, down):  2.096E+00 0.000E+00

     total cpu time spent up to now is      302.7 secs

     total energy              =   -2527.98126027 Ry
     Harris-Foulkes estimate   =   -2527.98151401 Ry
     estimated scf accuracy    <       0.00100076 Ry

     iteration # 21     ecut=    33.07 Ry     beta=0.05
     CG style diagonalization
     ethr =  2.37E-07,  avg # of iterations =  3.3

     negative rho (up, down):  2.097E+00 0.000E+00

     total cpu time spent up to now is      314.7 secs

     total energy              =   -2527.98125257 Ry
     Harris-Foulkes estimate   =   -2527.98130909 Ry
     estimated scf accuracy    <       0.00027345 Ry

     iteration # 22     ecut=    33.07 Ry     beta=0.05
     CG style diagonalization
     ethr =  1.42E-07,  avg # of iterations =  3.3

     negative rho (up, down):  2.100E+00 0.000E+00

     total cpu time spent up to now is      326.2 secs

     total energy              =   -2527.98137988 Ry
     Harris-Foulkes estimate   =   -2527.98128435 Ry
     estimated scf accuracy    <       0.00004211 Ry

     iteration # 23     ecut=    33.07 Ry     beta=0.05
     CG style diagonalization
     ethr =  2.19E-08,  avg # of iterations =  3.2

     negative rho (up, down):  2.100E+00 0.000E+00

     total cpu time spent up to now is      337.7 secs

     total energy              =   -2527.98138607 Ry
     Harris-Foulkes estimate   =   -2527.98138468 Ry
     estimated scf accuracy    <       0.00006497 Ry

     iteration # 24     ecut=    33.07 Ry     beta=0.05
     CG style diagonalization
     ethr =  2.19E-08,  avg # of iterations =  3.4

     negative rho (up, down):  2.101E+00 0.000E+00

     total cpu time spent up to now is      350.4 secs

     total energy              =   -2527.98140799 Ry
     Harris-Foulkes estimate   =   -2527.98139333 Ry
     estimated scf accuracy    <       0.00001110 Ry

     iteration # 25     ecut=    33.07 Ry     beta=0.05
     CG style diagonalization
     ethr =  5.78E-09,  avg # of iterations =  3.1

     negative rho (up, down):  2.102E+00 0.000E+00

     total cpu time spent up to now is      361.9 secs

     total energy              =   -2527.98142348 Ry
     Harris-Foulkes estimate   =   -2527.98140877 Ry
     estimated scf accuracy    <       0.00000848 Ry

     iteration # 26     ecut=    33.07 Ry     beta=0.05
     CG style diagonalization
     ethr =  4.42E-09,  avg # of iterations =  3.0

     negative rho (up, down):  2.101E+00 0.000E+00

     total cpu time spent up to now is      372.5 secs

     total energy              =   -2527.98143234 Ry
     Harris-Foulkes estimate   =   -2527.98142369 Ry
     estimated scf accuracy    <       0.00000545 Ry

     iteration # 27     ecut=    33.07 Ry     beta=0.05
     CG style diagonalization
     ethr =  2.84E-09,  avg # of iterations =  3.6

     negative rho (up, down):  2.101E+00 0.000E+00

     total cpu time spent up to now is      385.5 secs

     total energy              =   -2527.98143995 Ry
     Harris-Foulkes estimate   =   -2527.98143439 Ry
     estimated scf accuracy    <       0.00000815 Ry

     iteration # 28     ecut=    33.07 Ry     beta=0.05
     CG style diagonalization
     ethr =  2.84E-09,  avg # of iterations =  3.4

     negative rho (up, down):  2.101E+00 0.000E+00

     total cpu time spent up to now is      398.0 secs

     total energy              =   -2527.98144919 Ry
     Harris-Foulkes estimate   =   -2527.98144069 Ry
     estimated scf accuracy    <       0.00000090 Ry

     iteration # 29     ecut=    33.07 Ry     beta=0.05
     CG style diagonalization
     ethr =  4.66E-10,  avg # of iterations =  3.7

     negative rho (up, down):  2.101E+00 0.000E+00

     total cpu time spent up to now is      410.9 secs

     total energy              =   -2527.98145720 Ry
     Harris-Foulkes estimate   =   -2527.98144940 Ry
     estimated scf accuracy    <       0.00000033 Ry

     iteration # 30     ecut=    33.07 Ry     beta=0.05
     CG style diagonalization
     ethr =  1.70E-10,  avg # of iterations =  3.1

     negative rho (up, down):  2.101E+00 0.000E+00

     total cpu time spent up to now is      422.4 secs

     total energy              =   -2527.98146404 Ry
     Harris-Foulkes estimate   =   -2527.98145723 Ry
     estimated scf accuracy    <       0.00000026 Ry

     iteration # 31     ecut=    33.07 Ry     beta=0.05
     CG style diagonalization
     ethr =  1.33E-10,  avg # of iterations =  3.9

     negative rho (up, down):  2.101E+00 0.000E+00

     total cpu time spent up to now is      436.5 secs

     total energy              =   -2527.98147075 Ry
     Harris-Foulkes estimate   =   -2527.98146412 Ry
     estimated scf accuracy    <       0.00000030 Ry

     iteration # 32     ecut=    33.07 Ry     beta=0.05
     CG style diagonalization
     ethr =  1.33E-10,  avg # of iterations =  3.0

     negative rho (up, down):  2.101E+00 0.000E+00

     total cpu time spent up to now is      446.8 secs

     total energy              =   -2527.98147688 Ry
     Harris-Foulkes estimate   =   -2527.98147075 Ry
     estimated scf accuracy    <       0.00000022 Ry

     iteration # 33     ecut=    33.07 Ry     beta=0.05
     CG style diagonalization
     ethr =  1.16E-10,  avg # of iterations =  4.3

     negative rho (up, down):  2.101E+00 0.000E+00

     total cpu time spent up to now is      461.9 secs

     total energy              =   -2527.98148205 Ry
     Harris-Foulkes estimate   =   -2527.98147706 Ry
     estimated scf accuracy    <       0.00000062 Ry

     iteration # 34     ecut=    33.07 Ry     beta=0.05
     CG style diagonalization
     ethr =  1.16E-10,  avg # of iterations =  3.6

     negative rho (up, down):  2.101E+00 0.000E+00

     total cpu time spent up to now is      474.9 secs

     total energy              =   -2527.98148693 Ry
     Harris-Foulkes estimate   =   -2527.98148212 Ry
     estimated scf accuracy    <       0.00000009 Ry

     iteration # 35     ecut=    33.07 Ry     beta=0.05
     CG style diagonalization
     ethr =  4.48E-11,  avg # of iterations =  4.2

     negative rho (up, down):  2.101E+00 0.000E+00

     total cpu time spent up to now is      489.6 secs

     total energy              =   -2527.98149145 Ry
     Harris-Foulkes estimate   =   -2527.98148698 Ry
     estimated scf accuracy    <       0.00000017 Ry

     iteration # 36     ecut=    33.07 Ry     beta=0.05
     CG style diagonalization
     ethr =  4.48E-11,  avg # of iterations =  3.6

     negative rho (up, down):  2.101E+00 0.000E+00

     total cpu time spent up to now is      502.6 secs

     End of self-consistent calculation

          k = 0.0000 0.0000 0.0000 (  8427 PWs)   bands (ev):

   -45.5058 -45.5058 -45.5058 -45.3710 -45.3351 -45.3351 -45.3351 -45.2314
   -45.2314 -45.2314 -45.1663 -45.1663 -45.1662 -45.1400 -45.1400 -45.1176
   -45.1176 -45.1176 -44.8994 -44.8994 -44.8994 -44.8949 -44.8949 -44.8949
   -44.8110 -44.8110 -44.8091 -44.8091 -44.6988 -44.6558 -44.6532 -44.6531
   -44.6531 -44.6384 -44.6383 -44.6383  -1.8057  -0.0142   0.4500   0.8379
     0.8379   0.8379   1.0800   1.0800   1.0800   1.5650   1.5650   1.5650
     1.7147   1.7147   1.7147   3.2029   3.2029   3.2030   3.6156   3.6156
     3.6156   3.7784   3.8793   3.8793   4.2034   4.2034   4.2096   4.3683
     4.3683   4.3683   4.4364   4.4364   4.9887   4.9888   4.9888   5.9830
     5.9830   5.9830   5.9968   5.9968   6.1092   6.1092   6.1092   6.6423
     6.6729   6.6729   7.2565   7.2565   7.2565   7.2871   7.2872   7.2872
     7.4073   7.4073   7.6382   7.6382   7.6382   7.9647   7.9647   7.9648
     8.0270   8.0270   8.0270   8.2146   8.5598   8.5598   8.5598  10.3245
    10.3246  10.3246

          k = 0.0000 0.0297 0.0000 (  8409 PWs)   bands (ev):

   -45.4960 -45.4960 -45.4883 -45.3678 -45.3334 -45.3324 -45.3324 -45.2421
   -45.2421 -45.2269 -45.1589 -45.1562 -45.1561 -45.1489 -45.1445 -45.1116
   -45.1115 -45.1064 -44.9085 -44.9085 -44.9051 -44.9050 -44.8951 -44.8907
   -44.8283 -44.8271 -44.8154 -44.8134 -44.6956 -44.6552 -44.6539 -44.6522
   -44.6522 -44.6403 -44.6390 -44.6389  -1.6252   0.1686   0.6229   0.8433
     0.9772   0.9773   1.1410   1.2058   1.2058   1.6040   1.6377   1.6377
     1.8105   1.8875   1.8875   3.2063   3.2063   3.2402   3.6863   3.6873
     3.6873   3.7031   3.7701   3.9311   4.0098   4.2167   4.2167   4.3038
     4.3621   4.3961   4.4089   4.5712   4.8211   4.9235   4.9236   5.7623
     5.7623   5.8401   5.9150   5.9318   5.9891   6.0453   6.0453   6.1230
     6.6750   6.7863   6.9111   6.9111   7.0584   7.1165   7.1165   7.1880
     7.2894   7.2894   7.3864   7.4135   7.4645   7.4842   7.4842   7.6879
     7.7627   7.7627   7.7627   7.8118   8.6349   9.0369   9.1458   9.1458
    10.0027  10.0027

          k = 0.0000 0.0595 0.0000 (  8387 PWs)   bands (ev):

   -45.4703 -45.4702 -45.4388 -45.3590 -45.3323 -45.3265 -45.3265 -45.2695
   -45.2694 -45.2143 -45.2112 -45.1573 -45.1307 -45.1306 -45.1003 -45.0945
   -45.0944 -45.0711 -44.9324 -44.9323 -44.9311 -44.9310 -44.8829 -44.8788
   -44.8779 -44.8755 -44.8277 -44.8254 -44.6870 -44.6571 -44.6538 -44.6498
   -44.6497 -44.6450 -44.6407 -44.6406  -1.1132   0.6665   0.7559   1.0921
     1.3010   1.3545   1.3545   1.5271   1.5271   1.7271   1.8711   1.8711
     2.0713   2.3634   2.3634   3.1667   3.1667   3.3130   3.3330   3.5319
     3.7716   3.8188   3.8228   3.8228   3.9160   3.9160   4.2448   4.3784
     4.4128   4.4603   4.5197   4.5603   4.6648   4.6648   4.9632   5.3277
     5.3277   5.3491   5.3633   5.7369   5.7369   5.7571   5.7572   5.7744
     5.8296   5.9441   5.9551   6.4575   6.5834   6.5834   6.6550   6.6852
     6.7951   6.8435   6.8435   7.0724   7.1943   7.2852   7.2852   7.4060
     7.4298   7.5266   7.6845   7.6846   8.1121   9.5038   9.5039  10.2561
    10.2740  10.2928

          k = 0.0000 0.0892 0.0000 (  8378 PWs)   bands (ev):

   -45.4430 -45.4430 -45.3667 -45.3474 -45.3371 -45.3221 -45.3221 -45.2976
   -45.2976 -45.2855 -45.1960 -45.1757 -45.1047 -45.1046 -45.0743 -45.0743
   -45.0294 -45.0129 -44.9603 -44.9603 -44.9551 -44.9550 -44.9500 -44.9423
   -44.8652 -44.8617 -44.8455 -44.8426 -44.6758 -44.6647 -44.6517 -44.6491
   -44.6466 -44.6465 -44.6434 -44.6433  -0.3768   0.3469   1.2430   1.4383
     1.6512   1.7580   1.7580   1.8351   1.8352   1.8593   2.2791   2.2791
     2.4554   2.8346   2.8346   2.8920   3.1959   3.2024   3.2024   3.2839
     3.3386   3.3386   3.7909   3.8510   4.0335   4.2082   4.2082   4.3613
     4.3614   4.4241   4.4728   4.6564   4.6564   4.6577   4.6981   4.7278
     4.7720   4.8337   4.8337   4.9610   5.0006   5.4975   5.5726   5.6242
     5.6312   5.6312   5.8285   5.9337   5.9858   5.9858   6.2893   6.3742
     6.6136   6.6137   6.6173   6.6316   6.7074   6.9467   7.2806   7.2807
     7.4472   7.4639   7.7106   7.7106   8.8193   9.5155   9.6353   9.6354
    10.4642  10.4642

          k = 0.0360 0.0208 0.0000 (  8399 PWs)   bands (ev):

   -45.4871 -45.4871 -45.4719 -45.3648 -45.3325 -45.3302 -45.3302 -45.2517
   -45.2516 -45.2227 -45.1763 -45.1488 -45.1473 -45.1472 -45.1328 -45.1059
   -45.1058 -45.0953 -44.9167 -44.9167 -44.9142 -44.9142 -44.8910 -44.8868
   -44.8445 -44.8435 -44.8195 -44.8174 -44.6927 -44.6548 -44.6547 -44.6514
   -44.6513 -44.6420 -44.6396 -44.6395  -1.4564   0.3369   0.7818   0.8319
     1.1054   1.1054   1.1965   1.3185   1.3185   1.6437   1.7105   1.7105
     1.8973   2.0463   2.0464   3.1998   3.1998   3.2741   3.5591   3.7267
     3.7443   3.7559   3.7559   3.8314   4.0876   4.0876   4.1320   4.3278
     4.3935   4.4077   4.4462   4.6783   4.6987   4.8463   4.8463   5.6049
     5.6049   5.6479   5.7264   5.8847   5.9430   5.9430   5.9882   6.0176
     6.4532   6.4532   6.5617   6.6713   6.7206   6.9666   6.9666   7.0772
     7.1371   7.1371   7.2586   7.3193   7.3194   7.3391   7.4192   7.5620
     7.6713   7.6768   7.7004   7.7005   8.0175   9.3309   9.3309   9.5111
    10.0916  10.0916

          k = 0.0360 0.0505 0.0000 (  8406 PWs)   bands (ev):

   -45.4740 -45.4509 -45.4426 -45.3580 -45.3308 -45.3293 -45.3239 -45.2928
   -45.2393 -45.2264 -45.2157 -45.1602 -45.1338 -45.1120 -45.1039 -45.0980
   -45.0799 -45.0737 -44.9543 -44.9523 -44.9050 -44.9025 -44.8935 -44.8902
   -44.8823 -44.8795 -44.8300 -44.8285 -44.6861 -44.6553 -44.6536 -44.6534
   -44.6478 -44.6445 -44.6436 -44.6390  -1.0519   0.7296   0.9108   1.0660
     1.1525   1.3981   1.4598   1.5458   1.6026   1.7911   1.8242   1.9537
     2.1622   2.2335   2.5108   3.1078   3.2441   3.2739   3.2866   3.5450
     3.6722   3.7798   3.8246   3.8260   3.9007   4.0619   4.1795   4.2431
     4.3071   4.4471   4.6122   4.6137   4.6164   4.6729   5.0404   5.2585
     5.2814   5.2846   5.3808   5.5592   5.6257   5.6330   5.7275   5.7806
     5.8430   5.8924   6.0439   6.1855   6.3720   6.4039   6.6407   6.8475
     6.8497   6.8797   7.0425   7.1656   7.2139   7.2763   7.3022   7.4117
     7.5275   7.5518   7.7479   8.0714   8.2067   8.2088   8.6673  10.3758
    10.5838  10.9862

          k = 0.0360 0.0803 0.0000 (  8397 PWs)   bands (ev):

   -45.4451 -45.4116 -45.3915 -45.3477 -45.3397 -45.3326 -45.3290 -45.3172
   -45.2774 -45.2416 -45.2191 -45.1804 -45.1054 -45.0793 -45.0740 -45.0540
   -45.0490 -45.0329 -45.0007 -44.9913 -44.9426 -44.9346 -44.9064 -44.9043
   -44.8858 -44.8834 -44.8490 -44.8475 -44.6760 -44.6594 -44.6548 -44.6519
   -44.6479 -44.6468 -44.6442 -44.6398  -0.3818   0.7543   1.1144   1.3128
     1.6394   1.7175   1.7528   1.9101   2.0149   2.0202   2.1051   2.3772
     2.5454   2.6806   2.7288   2.9278   3.1014   3.1446   3.2202   3.2251
     3.5303   3.5361   3.5458   3.6795   4.0465   4.0715   4.1300   4.1380
     4.1630   4.3305   4.3542   4.4547   4.4686   4.5534   4.7262   4.8810
     4.9347   4.9544   4.9819   5.0160   5.1920   5.4988   5.5523   5.6412
     5.6828   5.7219   5.8750   5.9289   6.0196   6.1616   6.3190   6.5054
     6.5914   6.9259   6.9821   6.9937   7.0985   7.1858   7.1989   7.2462
     7.3543   7.4090   7.4305   7.5398   7.9171   8.2418   8.8361   9.9974
    10.5479  11.5129

          k = 0.0360 0.1100 0.0000 (  8386 PWs)   bands (ev):

   -45.4298 -45.4016 -45.3594 -45.3493 -45.3412 -45.3373 -45.3285 -45.3202
   -45.3152 -45.2478 -45.2047 -45.1948 -45.0909 -45.0686 -45.0645 -45.0404
   -45.0206 -45.0128 -45.0061 -44.9974 -44.9844 -44.9723 -44.9123 -44.9097
   -44.8721 -44.8700 -44.8627 -44.8608 -44.6694 -44.6651 -44.6544 -44.6506
   -44.6496 -44.6475 -44.6426 -44.6407   0.0822   0.3807   1.1946   1.5856
     1.6628   1.8802   2.0089   2.0633   2.0812   2.1348   2.3903   2.6246
     2.6343   2.6740   2.7499   2.8042   2.9485   2.9952   3.1601   3.2070
     3.4576   3.6678   3.6751   3.7650   3.7662   3.8713   3.9012   3.9582
     4.0709   4.0780   4.2984   4.4471   4.5482   4.6200   4.6521   4.6551
     4.7063   4.7211   4.9574   4.9967   5.2355   5.3922   5.6257   5.6615
     5.7228   5.8388   5.8417   5.9098   6.0552   6.2116   6.2162   6.4910
     6.5533   6.5832   6.8270   6.8530   7.0165   7.0757   7.1175   7.1959
     7.2851   7.3350   7.4059   7.4168   7.9605   8.2838   9.2390   9.5240
    10.5487  11.4892

          k = 0.0360-0.0684 0.0000 (  8400 PWs)   bands (ev):

   -45.4577 -45.4229 -45.4174 -45.3521 -45.3306 -45.3296 -45.3214 -45.3196
   -45.2508 -45.2352 -45.2279 -45.1715 -45.1178 -45.0876 -45.0848 -45.0793
   -45.0583 -45.0539 -44.9824 -44.9764 -44.9165 -44.9109 -44.9008 -44.8985
   -44.8942 -44.8917 -44.8405 -44.8392 -44.6803 -44.6564 -44.6551 -44.6526
   -44.6464 -44.6460 -44.6456 -44.6394  -0.6738   0.9270   1.0311   1.0752
     1.4827   1.5743   1.6110   1.7832   1.8559   1.9347   1.9569   2.1905
     2.4089   2.4531   2.7581   3.0605   3.0944   3.2146   3.2360   3.3656
     3.5604   3.6162   3.6756   3.7087   4.0309   4.1297   4.1566   4.1582
     4.1856   4.4292   4.4539   4.5351   4.6869   4.7616   4.8726   4.9008
     5.0400   5.0580   5.0591   5.3216   5.3308   5.3850   5.4371   5.5825
     5.7901   5.7908   5.9974   6.0114   6.0335   6.2016   6.3597   6.6752
     6.6906   6.9584   7.0036   7.0871   7.1507   7.2022   7.2483   7.3425
     7.4053   7.4650   7.6520   7.8610   7.9178   8.1871   8.5782  10.3596
    10.5519  11.0414

          k = 0.0360-0.0387 0.0000 (  8411 PWs)   bands (ev):

   -45.4816 -45.4686 -45.4554 -45.3613 -45.3316 -45.3294 -45.3267 -45.2749
   -45.2453 -45.2228 -45.1967 -45.1544 -45.1415 -45.1293 -45.1166 -45.1026
   -45.0929 -45.0834 -44.9371 -44.9365 -44.9107 -44.9082 -44.8907 -44.8868
   -44.8639 -44.8623 -44.8246 -44.8228 -44.6893 -44.6553 -44.6542 -44.6523
   -44.6493 -44.6435 -44.6417 -44.6391  -1.2511   0.5382   0.8555   0.9715
     1.0991   1.2890   1.3531   1.3916   1.4785   1.7114   1.7673   1.8327
     2.0227   2.1414   2.3012   3.1547   3.2238   3.2931   3.4056   3.6363
     3.7498   3.8028   3.8252   3.8316   3.8956   4.0576   4.2697   4.3003
     4.3269   4.3711   4.5165   4.6422   4.7141   4.7633   4.8664   5.4002
     5.4592   5.4741   5.4842   5.7721   5.8348   5.8561   5.9478   5.9715
     6.0030   6.0685   6.1345   6.3162   6.6685   6.7569   6.7967   6.7993
     6.9307   6.9712   7.0598   7.2313   7.2656   7.3138   7.3586   7.4066
     7.6251   7.6278   7.6766   7.9732   7.9836   8.6314   9.2245   9.9796
    10.2775  10.6405

          k = 0.0360-0.0089 0.0000 (  8406 PWs)   bands (ev):

   -45.4934 -45.4867 -45.4800 -45.3660 -45.3326 -45.3317 -45.3306 -45.2538
   -45.2394 -45.2268 -45.1690 -45.1534 -45.1471 -45.1471 -45.1407 -45.1101
   -45.1054 -45.1009 -44.9187 -44.9162 -44.9059 -44.9025 -44.8948 -44.8906
   -44.8375 -44.8369 -44.8178 -44.8159 -44.6939 -44.6549 -44.6541 -44.6526
   -44.6511 -44.6411 -44.6401 -44.6387  -1.5261   0.2679   0.7167   0.8623
     0.9803   1.1014   1.1853   1.2405   1.2935   1.6340   1.6634   1.6916
     1.8722   1.9352   2.0140   3.1922   3.2215   3.2535   3.6162   3.7229
     3.7242   3.7277   3.7556   3.8564   4.0831   4.0961   4.2163   4.3333
     4.3704   4.3829   4.3986   4.6483   4.7654   4.8480   4.8985   5.6281
     5.7198   5.7244   5.7915   5.8908   5.9706   5.9818   6.0061   6.0884
     6.5198   6.6275   6.6624   6.7934   6.8212   7.0333   7.0446   7.1002
     7.1944   7.2426   7.2690   7.3245   7.3593   7.3988   7.5373   7.5911
     7.6004   7.6961   7.6992   7.8923   8.4750   8.7152   9.3296   9.4161
     9.7562  10.6230

          k = 0.0721 0.0416 0.0000 (  8360 PWs)   bands (ev):

   -45.4473 -45.4473 -45.3823 -45.3498 -45.3356 -45.3227 -45.3226 -45.2933
   -45.2932 -45.2696 -45.2000 -45.1717 -45.1087 -45.1086 -45.0777 -45.0776
   -45.0447 -45.0259 -44.9558 -44.9558 -44.9514 -44.9514 -44.9345 -44.9281
   -44.8690 -44.8654 -44.8417 -44.8389 -44.6781 -44.6628 -44.6522 -44.6484
   -44.6473 -44.6472 -44.6428 -44.6427  -0.5329   0.4607   1.1445   1.4251
     1.5511   1.6970   1.6970   1.7889   1.7890   1.8444   2.1894   2.1894
     2.3713   2.7958   2.7958   2.9768   3.1605   3.1606   3.2423   3.3247
     3.4167   3.4167   3.7875   3.8090   4.0708   4.1668   4.1668   4.3834
     4.3834   4.4218   4.4532   4.6320   4.6724   4.8280   4.8281   4.8282
     4.8819   4.9421   4.9448   4.9448   5.0423   5.4365   5.5066   5.6259
     5.6259   5.7275   5.8834   5.9615   6.0777   6.0777   6.3981   6.5097
     6.5808   6.6227   6.6419   6.6419   6.7744   7.0205   7.2800   7.2800
     7.4441   7.4693   7.7060   7.7061   8.6800   9.6206   9.6206   9.6600
    10.4417  11.2721

          k = 0.0721 0.0714 0.0000 (  8382 PWs)   bands (ev):

   -45.4370 -45.4168 -45.3458 -45.3432 -45.3425 -45.3385 -45.3262 -45.3167
   -45.3149 -45.2627 -45.1979 -45.1889 -45.0983 -45.0794 -45.0723 -45.0527
   -45.0091 -45.0047 -44.9947 -44.9933 -44.9790 -44.9679 -44.9265 -44.9233
   -44.8662 -44.8636 -44.8576 -44.8552 -44.6708 -44.6664 -44.6513 -44.6508
   -44.6498 -44.6467 -44.6433 -44.6413  -0.0250   0.2720   1.4159   1.4812
     1.5578   1.8703   1.8983   1.9759   1.9889   2.0605   2.3716   2.5391
     2.6622   2.7189   2.7282   2.7991   3.0480   3.0707   3.1615   3.2544
     3.3695   3.5642   3.7940   3.8053   3.8994   3.9143   4.0787   4.0961
     4.2152   4.2388   4.2909   4.4328   4.5008   4.6314   4.6624   4.6890
     4.6957   4.7099   4.9474   4.9904   5.2176   5.4006   5.6039   5.6143
     5.7352   5.7592   5.7956   5.9206   5.9896   6.1260   6.2103   6.3779
     6.5196   6.5273   6.7094   6.7639   6.9203   6.9873   7.1765   7.2527
     7.3533   7.3793   7.5322   7.5596   8.4109   8.8609   9.1409   9.4209
    10.9638  11.0187

          k = 0.0721 0.1011 0.0000 (  8385 PWs)   bands (ev):

   -45.4172 -45.3787 -45.3740 -45.3644 -45.3397 -45.3342 -45.3327 -45.3265
   -45.3139 -45.2264 -45.2193 -45.2018 -45.0780 -45.0628 -45.0394 -45.0374
   -45.0279 -45.0195 -45.0178 -45.0098 -44.9908 -44.9775 -44.8920 -44.8901
   -44.8853 -44.8836 -44.8689 -44.8675 -44.6678 -44.6616 -44.6598 -44.6504
   -44.6491 -44.6487 -44.6420 -44.6405   0.2108   0.6571   0.8001   1.7082
     1.8227   1.8591   2.1588   2.1595   2.2199   2.2777   2.3428   2.4809
     2.6865   2.7036   2.7392   2.7631   2.9662   3.0515   3.1135   3.1174
     3.4098   3.5859   3.6412   3.6856   3.7117   3.8128   3.8600   3.8715
     3.8968   3.9107   4.3273   4.4401   4.5937   4.6036   4.6156   4.6235
     4.7341   4.8022   4.8511   4.9190   5.2852   5.4731   5.5224   5.6543
     5.8787   5.9015   5.9107   5.9124   5.9775   6.2941   6.3629   6.3885
     6.6933   6.8959   6.9853   7.0152   7.0324   7.1228   7.1464   7.1861
     7.2116   7.2253   7.2579   7.3612   7.4155   7.5705   9.3545   9.8038
     9.9680  12.4260

          k = 0.0721 0.1308 0.0000 (  8373 PWs)   bands (ev):

   -45.4329 -45.4090 -45.3524 -45.3409 -45.3399 -45.3388 -45.3273 -45.3248
   -45.3158 -45.2556 -45.1988 -45.1941 -45.0942 -45.0719 -45.0700 -45.0465
   -45.0139 -45.0034 -45.0006 -44.9894 -44.9887 -44.9764 -44.9197 -44.9168
   -44.8668 -44.8645 -44.8623 -44.8601 -44.6690 -44.6669 -44.6528 -44.6505
   -44.6500 -44.6472 -44.6428 -44.6411   0.1016   0.2508   1.3152   1.5589
     1.5972   1.8820   1.9801   2.0175   2.0350   2.1030   2.4146   2.6044
     2.6662   2.6728   2.7329   2.7864   2.9969   2.9969   3.1492   3.2697
     3.4059   3.6358   3.7877   3.7923   3.8004   3.8689   3.9275   4.0023
     4.1408   4.1481   4.3061   4.4474   4.5514   4.6398   4.6466   4.6485
     4.6757   4.6897   4.9676   4.9881   5.2643   5.3489   5.6295   5.6953
     5.6999   5.7674   5.8134   5.8960   6.0888   6.1717   6.2212   6.3781
     6.5026   6.5952   6.7034   6.8042   6.9802   7.0109   7.1477   7.2279
     7.3270   7.3448   7.4695   7.4917   8.1840   8.5677   9.2562   9.3972
    10.7753  11.2260

          k = 0.0721-0.0476 0.0000 (  8381 PWs)   bands (ev):

   -45.4467 -45.4423 -45.3746 -45.3485 -45.3363 -45.3232 -45.3216 -45.3031
   -45.2880 -45.2778 -45.1984 -45.1740 -45.1081 -45.1040 -45.0775 -45.0736
   -45.0372 -45.0195 -44.9656 -44.9601 -44.9508 -44.9466 -44.9425 -44.9354
   -44.8674 -44.8639 -44.8438 -44.8410 -44.6769 -44.6637 -44.6519 -44.6487
   -44.6476 -44.6463 -44.6437 -44.6424  -0.4502   0.4108   1.2009   1.4384
     1.6079   1.6669   1.7870   1.8054   1.8262   1.8579   2.2178   2.2559
     2.4165   2.8083   2.8287   2.9344   3.1770   3.1850   3.2128   3.3010
     3.3667   3.3849   3.7854   3.8231   4.0476   4.1819   4.1962   4.3529
     4.3824   4.4213   4.4461   4.6203   4.6787   4.6944   4.7890   4.7972
     4.8347   4.8809   4.8946   4.9364   5.0156   5.4938   5.5133   5.6071
     5.6493   5.6747   5.8909   5.9131   6.0011   6.0527   6.3510   6.4512
     6.5581   6.6087   6.6507   6.6686   6.7465   6.9890   7.2676   7.2873
     7.4404   7.4636   7.6965   7.7061   8.7550   9.3692   9.5926   9.8919
    10.1150  11.4067

          k = 0.0721-0.0178 0.0000 (  8390 PWs)   bands (ev):

   -45.4606 -45.4415 -45.4116 -45.3533 -45.3326 -45.3270 -45.3213 -45.3081
   -45.2558 -45.2448 -45.2138 -45.1677 -45.1209 -45.1030 -45.0888 -45.0735
   -45.0727 -45.0496 -44.9697 -44.9652 -44.9197 -44.9178 -44.9105 -44.9057
   -44.8817 -44.8784 -44.8374 -44.8354 -44.6815 -44.6587 -44.6528 -44.6516
   -44.6468 -44.6465 -44.6443 -44.6399  -0.7577   0.7254   0.9904   1.2899
     1.4005   1.4495   1.6474   1.7277   1.7577   1.8502   1.9792   2.1192
     2.2826   2.5206   2.7271   3.0885   3.1076   3.1868   3.3124   3.3539
     3.6135   3.6317   3.6804   3.7865   4.0292   4.0823   4.1500   4.2662
     4.3043   4.4403   4.5382   4.5591   4.6362   4.7302   4.9969   5.0537
     5.0866   5.0988   5.1591   5.2423   5.2982   5.3473   5.5068   5.6041
     5.7506   5.8342   5.9362   6.0972   6.1338   6.3178   6.3726   6.6224
     6.7041   6.8277   6.8539   6.9786   7.1328   7.1935   7.2783   7.3498
     7.3625   7.5140   7.5826   7.5942   8.4891   8.5529   9.0711  10.0656
    10.8991  11.2474

          k = 0.0721 0.0119 0.0000 (  8399 PWs)   bands (ev):

   -45.4623 -45.4382 -45.4180 -45.3538 -45.3317 -45.3280 -45.3211 -45.3101
   -45.2473 -45.2412 -45.2191 -45.1675 -45.1224 -45.0997 -45.0903 -45.0799
   -45.0701 -45.0547 -44.9715 -44.9670 -44.9120 -44.9099 -44.9072 -44.9025
   -44.8866 -44.8834 -44.8370 -44.8353 -44.6820 -44.6575 -44.6529 -44.6528
   -44.6464 -44.6464 -44.6447 -44.6395  -0.7862   0.8075   0.9708   1.1865
     1.3819   1.4734   1.6101   1.7219   1.7597   1.8624   1.9448   2.1112
     2.2899   2.4528   2.7159   3.0793   3.1218   3.2064   3.2939   3.3876
     3.6405   3.6445   3.6803   3.7799   4.0049   4.0822   4.1683   4.2124
     4.2675   4.4620   4.5438   4.5602   4.6293   4.7133   5.0371   5.0863
     5.1033   5.1198   5.1592   5.2579   5.3172   5.4182   5.4935   5.6123
     5.7817   5.8379   5.9801   6.0948   6.1303   6.2516   6.4188   6.6803
     6.7275   6.8811   6.9253   7.0775   7.1607   7.2550   7.2637   7.3088
     7.4810   7.5340   7.5378   7.6546   8.2987   8.4681   8.7505  10.2090
    10.8511  10.9956

     the Fermi energy is     7.4277 ev

!    total energy              =   -2527.98153237 Ry
     Harris-Foulkes estimate   =   -2527.98149147 Ry
     estimated scf accuracy    <       0.00000004 Ry

     The total energy is the sum of the following terms:

     one-electron contribution =   -6966.25879163 Ry
     hartree contribution      =    3553.65895726 Ry
     xc contribution           =    -682.27732870 Ry
     ewald contribution        =    1566.95308287 Ry
     smearing contrib. (-TS)   =      -0.05745218 Ry

     convergence has been achieved in  36 iterations

     Forces acting on atoms (Ry/au):


     negative rho (up, down):  2.101E+00 0.000E+00
     atom    1 type  1   force =     0.00000000   -0.00000000   -0.01804249
     atom    2 type  1   force =    -0.00000002   -0.00000001   -0.01804095
     atom    3 type  1   force =     0.00000002   -0.00000001   -0.01804095
     atom    4 type  1   force =    -0.00000000    0.00000002   -0.01804095
     atom    5 type  1   force =     0.00000000    0.00000000   -0.00000167
     atom    6 type  1   force =     0.00000018    0.00000010   -0.00000213
     atom    7 type  1   force =    -0.00000018    0.00000010   -0.00000213
     atom    8 type  1   force =    -0.00000000   -0.00000020   -0.00000213
     atom    9 type  1   force =     0.00000000    0.00000000    0.01804493
     atom   10 type  1   force =    -0.00000006   -0.00000003    0.01804282
     atom   11 type  1   force =     0.00000006   -0.00000003    0.01804282
     atom   12 type  1   force =     0.00000000    0.00000007    0.01804282

     Total force =     0.051031     Total SCF correction =     0.000423
 !ASE

     Writing output data file calc.save
     Check: negative starting charge=   -2.207876
     NEW-OLD atomic charge density approx. for the potential
     Check: negative starting charge=   -2.195728

     negative rho (up, down):  2.097E+00 0.000E+00

     total cpu time spent up to now is      506.4 secs

     per-process dynamical memory:    57.4 Mb

     Self-consistent Calculation

     iteration #  1     ecut=    33.07 Ry     beta=0.05
     CG style diagonalization
     c_bands:  5 eigenvalues not converged
     c_bands:  1 eigenvalues not converged
     c_bands:  1 eigenvalues not converged
     c_bands:  2 eigenvalues not converged
     c_bands:  1 eigenvalues not converged
     c_bands:  2 eigenvalues not converged
     c_bands:  2 eigenvalues not converged
     c_bands:  2 eigenvalues not converged
     c_bands:  3 eigenvalues not converged
     c_bands:  5 eigenvalues not converged
     c_bands:  5 eigenvalues not converged
     ethr =  4.48E-11,  avg # of iterations = 33.0

     negative rho (up, down):  2.097E+00 0.000E+00

     total cpu time spent up to now is      617.0 secs

     total energy              =   -2527.99993959 Ry
     Harris-Foulkes estimate   =   -2528.00223710 Ry
     estimated scf accuracy    <       0.20558157 Ry

     iteration #  2     ecut=    33.07 Ry     beta=0.05
     CG style diagonalization
     ethr =  1.07E-04,  avg # of iterations =  3.0

     negative rho (up, down):  2.097E+00 0.000E+00

     total cpu time spent up to now is      627.5 secs

     total energy              =   -2527.98315247 Ry
     Harris-Foulkes estimate   =   -2528.00005651 Ry
     estimated scf accuracy    <       0.16666494 Ry

     iteration #  3     ecut=    33.07 Ry     beta=0.05
     CG style diagonalization
     ethr =  8.68E-05,  avg # of iterations =  3.0

     negative rho (up, down):  2.098E+00 0.000E+00

     total cpu time spent up to now is      637.9 secs

     total energy              =   -2527.99005905 Ry
     Harris-Foulkes estimate   =   -2527.99168917 Ry
     estimated scf accuracy    <       0.00822214 Ry

     iteration #  4     ecut=    33.07 Ry     beta=0.05
     CG style diagonalization
     ethr =  4.28E-06,  avg # of iterations =  3.1

     negative rho (up, down):  2.101E+00 0.000E+00

     total cpu time spent up to now is      649.5 secs

     total energy              =   -2527.98917464 Ry
     Harris-Foulkes estimate   =   -2527.99085098 Ry
     estimated scf accuracy    <       0.01048649 Ry

     iteration #  5     ecut=    33.07 Ry     beta=0.05
     CG style diagonalization
     ethr =  4.28E-06,  avg # of iterations =  3.1

     negative rho (up, down):  2.101E+00 0.000E+00

     total cpu time spent up to now is      660.8 secs

     total energy              =   -2527.98997053 Ry
     Harris-Foulkes estimate   =   -2527.98995725 Ry
     estimated scf accuracy    <       0.00052456 Ry

     iteration #  6     ecut=    33.07 Ry     beta=0.05
     CG style diagonalization
     ethr =  2.73E-07,  avg # of iterations =  3.6

     negative rho (up, down):  2.101E+00 0.000E+00

     total cpu time spent up to now is      673.3 secs

     total energy              =   -2527.98976365 Ry
     Harris-Foulkes estimate   =   -2527.99019153 Ry
     estimated scf accuracy    <       0.00324600 Ry

     iteration #  7     ecut=    33.07 Ry     beta=0.05
     CG style diagonalization
     ethr =  2.73E-07,  avg # of iterations =  3.1

     negative rho (up, down):  2.101E+00 0.000E+00

     total cpu time spent up to now is      684.7 secs

     total energy              =   -2527.98987740 Ry
     Harris-Foulkes estimate   =   -2527.98993282 Ry
     estimated scf accuracy    <       0.00022134 Ry

     iteration #  8     ecut=    33.07 Ry     beta=0.05
     CG style diagonalization
     ethr =  1.15E-07,  avg # of iterations =  3.5

     negative rho (up, down):  2.102E+00 0.000E+00

     total cpu time spent up to now is      697.4 secs

     total energy              =   -2527.98996497 Ry
     Harris-Foulkes estimate   =   -2527.98993829 Ry
     estimated scf accuracy    <       0.00054432 Ry

     iteration #  9     ecut=    33.07 Ry     beta=0.05
     CG style diagonalization
     ethr =  1.15E-07,  avg # of iterations =  3.0

     negative rho (up, down):  2.098E+00 0.000E+00

     total cpu time spent up to now is      707.9 secs

     total energy              =   -2527.98987059 Ry
     Harris-Foulkes estimate   =   -2527.98996699 Ry
     estimated scf accuracy    <       0.00066592 Ry

     iteration # 10     ecut=    33.07 Ry     beta=0.05
     CG style diagonalization
     ethr =  1.15E-07,  avg # of iterations =  3.0

     negative rho (up, down):  2.097E+00 0.000E+00

     total cpu time spent up to now is      718.7 secs

     total energy              =   -2527.98980436 Ry
     Harris-Foulkes estimate   =   -2527.98987583 Ry
     estimated scf accuracy    <       0.00037781 Ry

     iteration # 11     ecut=    33.07 Ry     beta=0.05
     CG style diagonalization
     ethr =  1.15E-07,  avg # of iterations =  3.0

     negative rho (up, down):  2.096E+00 0.000E+00

     total cpu time spent up to now is      729.7 secs

     total energy              =   -2527.98982581 Ry
     Harris-Foulkes estimate   =   -2527.98983617 Ry
     estimated scf accuracy    <       0.00003241 Ry

     iteration # 12     ecut=    33.07 Ry     beta=0.05
     CG style diagonalization
     ethr =  1.69E-08,  avg # of iterations =  3.1

     negative rho (up, down):  2.096E+00 0.000E+00

     total cpu time spent up to now is      740.8 secs

     total energy              =   -2527.98984091 Ry
     Harris-Foulkes estimate   =   -2527.98982962 Ry
     estimated scf accuracy    <       0.00000287 Ry

     iteration # 13     ecut=    33.07 Ry     beta=0.05
     CG style diagonalization
     ethr =  1.49E-09,  avg # of iterations =  3.7

     negative rho (up, down):  2.096E+00 0.000E+00

     total cpu time spent up to now is      753.9 secs

     total energy              =   -2527.98985204 Ry
     Harris-Foulkes estimate   =   -2527.98984162 Ry
     estimated scf accuracy    <       0.00000368 Ry

     iteration # 14     ecut=    33.07 Ry     beta=0.05
     CG style diagonalization
     ethr =  1.49E-09,  avg # of iterations =  3.0

     negative rho (up, down):  2.096E+00 0.000E+00

     total cpu time spent up to now is      764.6 secs

     total energy              =   -2527.98985599 Ry
     Harris-Foulkes estimate   =   -2527.98985216 Ry
     estimated scf accuracy    <       0.00000736 Ry

     iteration # 15     ecut=    33.07 Ry     beta=0.05
     CG style diagonalization
     ethr =  1.49E-09,  avg # of iterations =  3.1

     negative rho (up, down):  2.096E+00 0.000E+00

     total cpu time spent up to now is      775.4 secs

     total energy              =   -2527.98986516 Ry
     Harris-Foulkes estimate   =   -2527.98985651 Ry
     estimated scf accuracy    <       0.00000025 Ry

     iteration # 16     ecut=    33.07 Ry     beta=0.05
     CG style diagonalization
     ethr =  1.29E-10,  avg # of iterations =  3.2

     negative rho (up, down):  2.095E+00 0.000E+00

     total cpu time spent up to now is      786.4 secs

     total energy              =   -2527.98987298 Ry
     Harris-Foulkes estimate   =   -2527.98986518 Ry
     estimated scf accuracy    <       0.00000017 Ry

     iteration # 17     ecut=    33.07 Ry     beta=0.05
     CG style diagonalization
     ethr =  8.98E-11,  avg # of iterations =  3.0

     negative rho (up, down):  2.095E+00 0.000E+00

     total cpu time spent up to now is      797.5 secs

     total energy              =   -2527.98988012 Ry
     Harris-Foulkes estimate   =   -2527.98987301 Ry
     estimated scf accuracy    <       0.00000076 Ry

     iteration # 18     ecut=    33.07 Ry     beta=0.05
     CG style diagonalization
     ethr =  8.98E-11,  avg # of iterations =  3.3

     negative rho (up, down):  2.095E+00 0.000E+00

     total cpu time spent up to now is      809.2 secs

     End of self-consistent calculation

          k = 0.0000 0.0000 0.0000 (  8427 PWs)   bands (ev):

   -45.4749 -45.4749 -45.4748 -45.2926 -45.2677 -45.2676 -45.2676 -45.2029
   -45.2029 -45.2029 -45.1550 -45.1550 -45.1550 -45.1124 -45.1124 -45.1031
   -45.1031 -45.1031 -44.8886 -44.8886 -44.8886 -44.8853 -44.8853 -44.8853
   -44.8002 -44.8002 -44.7989 -44.7989 -44.6623 -44.6273 -44.6167 -44.6167
   -44.6167 -44.6057 -44.6057 -44.6057  -1.6686   0.0251   0.5176   0.9634
     0.9634   0.9634   1.2042   1.2042   1.2042   1.7156   1.7156   1.7156
     1.7503   1.7503   1.7503   3.2702   3.2702   3.2702   3.5928   3.5928
     3.5928   3.7295   3.9624   3.9624   4.2207   4.2886   4.2886   4.4599
     4.4599   4.5514   4.5514   4.5514   5.0774   5.0774   5.0774   6.0422
     6.0422   6.0422   6.0509   6.0509   6.0975   6.0975   6.0975   6.6332
     6.7253   6.7253   7.2047   7.2047   7.2047   7.2496   7.2496   7.2496
     7.3647   7.3647   7.6710   7.6710   7.6710   7.9797   7.9797   7.9797
     8.0260   8.0260   8.0260   8.1655   8.5875   8.5875   8.5875  10.2873
    10.2873  10.2873

          k = 0.0000 0.0297 0.0000 (  8409 PWs)   bands (ev):

   -45.4651 -45.4651 -45.4574 -45.2896 -45.2640 -45.2640 -45.2640 -45.2135
   -45.2135 -45.1985 -45.1450 -45.1450 -45.1377 -45.1310 -45.1169 -45.0978
   -45.0978 -45.0934 -44.8978 -44.8978 -44.8954 -44.8954 -44.8842 -44.8810
   -44.8176 -44.8168 -44.8046 -44.8032 -44.6593 -44.6265 -44.6178 -44.6160
   -44.6160 -44.6076 -44.6061 -44.6061  -1.4875   0.2093   0.6930   0.9715
     1.1055   1.1055   1.2621   1.3345   1.3345   1.7270   1.7827   1.7827
     1.8740   1.9273   1.9273   3.2791   3.2791   3.3001   3.6686   3.6686
     3.6744   3.7344   3.7956   4.0033   4.0939   4.3783   4.3880   4.3880
     4.3960   4.4103   4.5918   4.5945   4.9077   5.0167   5.0167   5.7958
     5.7958   5.8952   5.9195   5.9856   6.0522   6.0711   6.0711   6.1535
     6.7206   6.7546   6.9285   6.9285   7.0422   7.0808   7.0808   7.1641
     7.2530   7.2530   7.3689   7.3798   7.4709   7.4709   7.4805   7.6889
     7.7478   7.7478   7.7714   7.8029   8.6013   8.9753   9.1661   9.1661
     9.9895   9.9896

          k = 0.0000 0.0595 0.0000 (  8387 PWs)   bands (ev):

   -45.4396 -45.4395 -45.4083 -45.2814 -45.2592 -45.2563 -45.2563 -45.2402
   -45.2402 -45.1860 -45.1826 -45.1296 -45.1196 -45.1196 -45.0891 -45.0825
   -45.0825 -45.0606 -44.9221 -44.9221 -44.9210 -44.9210 -44.8720 -44.8691
   -44.8673 -44.8652 -44.8169 -44.8152 -44.6514 -44.6242 -44.6218 -44.6143
   -44.6142 -44.6123 -44.6074 -44.6074  -0.9736   0.7132   0.8921   1.1695
     1.4143   1.4939   1.4939   1.6710   1.6711   1.8317   2.0081   2.0081
     2.1515   2.4059   2.4059   3.2571   3.2571   3.3892   3.4172   3.5994
     3.8001   3.8385   3.8933   3.8933   3.9917   3.9917   4.2357   4.4060
     4.4700   4.5259   4.6750   4.7026   4.7463   4.7463   4.9863   5.3569
     5.3569   5.3749   5.4108   5.7630   5.7630   5.7798   5.7923   5.7923
     5.8706   5.9710   6.0338   6.4450   6.5585   6.5585   6.6508   6.6868
     6.7918   6.7919   6.8279   7.0868   7.1902   7.2342   7.2342   7.3448
     7.3790   7.4616   7.6497   7.6497   8.0675   9.5251   9.5252  10.1455
    10.1799  10.2636

          k = 0.0000 0.0892 0.0000 (  8378 PWs)   bands (ev):

   -45.4126 -45.4125 -45.3367 -45.2707 -45.2689 -45.2688 -45.2617 -45.2562
   -45.2495 -45.2495 -45.1679 -45.1478 -45.0936 -45.0935 -45.0639 -45.0638
   -45.0185 -45.0033 -44.9499 -44.9498 -44.9451 -44.9451 -44.9393 -44.9325
   -44.8544 -44.8518 -44.8347 -44.8326 -44.6408 -44.6299 -44.6210 -44.6170
   -44.6119 -44.6119 -44.6094 -44.6094  -0.2345   0.4897   1.3099   1.5367
     1.7333   1.9233   1.9234   1.9454   1.9926   1.9927   2.4016   2.4016
     2.5474   2.9305   2.9305   2.9973   3.2868   3.2868   3.3048   3.4018
     3.4625   3.4625   3.7913   3.8635   4.0414   4.2353   4.2353   4.3864
     4.3864   4.4608   4.4751   4.6801   4.6801   4.7528   4.7882   4.8408
     4.8588   4.8588   4.8666   4.9878   5.0867   5.4766   5.5953   5.6347
     5.6347   5.7153   5.7854   5.9496   5.9711   5.9711   6.3207   6.3944
     6.5637   6.5637   6.6065   6.6316   6.6952   6.8997   7.2275   7.2275
     7.3868   7.3934   7.6706   7.6706   8.7310   9.3867   9.6575   9.6575
    10.4498  10.4498

          k = 0.0360 0.0208 0.0000 (  8399 PWs)   bands (ev):

   -45.4563 -45.4563 -45.4411 -45.2869 -45.2616 -45.2611 -45.2610 -45.2228
   -45.2228 -45.1943 -45.1482 -45.1361 -45.1361 -45.1216 -45.1211 -45.0928
   -45.0928 -45.0834 -44.9060 -44.9060 -44.9044 -44.9044 -44.8802 -44.8771
   -44.8339 -44.8331 -44.8087 -44.8072 -44.6567 -44.6257 -44.6190 -44.6154
   -44.6154 -44.6093 -44.6066 -44.6065  -1.3181   0.3792   0.8542   0.9629
     1.2367   1.2367   1.3150   1.4519   1.4519   1.7587   1.8536   1.8536
     1.9687   2.0863   2.0863   3.2784   3.2784   3.3299   3.6512   3.7293
     3.7418   3.7418   3.7421   3.8937   4.2175   4.2507   4.2507   4.3319
     4.4127   4.4930   4.6291   4.7219   4.7615   4.9390   4.9390   5.6353
     5.6353   5.7006   5.7413   5.9360   5.9781   5.9781   6.0435   6.0558
     6.4769   6.4769   6.5369   6.7118   6.7337   6.9374   6.9374   7.0857
     7.1013   7.1013   7.2337   7.2773   7.2773   7.3399   7.3726   7.5670
     7.6451   7.6562   7.6740   7.6740   7.9717   9.3512   9.3512   9.4432
    10.0821  10.0821

          k = 0.0360 0.0505 0.0000 (  8406 PWs)   bands (ev):

   -45.4432 -45.4203 -45.4120 -45.2805 -45.2635 -45.2581 -45.2573 -45.2541
   -45.2106 -45.1979 -45.1871 -45.1324 -45.1229 -45.1009 -45.0928 -45.0856
   -45.0690 -45.0632 -44.9443 -44.9421 -44.8944 -44.8926 -44.8827 -44.8804
   -44.8718 -44.8692 -44.8193 -44.8182 -44.6505 -44.6240 -44.6201 -44.6182
   -44.6121 -44.6117 -44.6106 -44.6056  -0.9120   0.7769   1.0490   1.2054
     1.2315   1.5175   1.5866   1.6874   1.7565   1.9132   1.9566   2.0885
     2.2235   2.2831   2.5576   3.2232   3.3134   3.3503   3.3825   3.6200
     3.6956   3.8579   3.8720   3.8884   3.9202   4.1654   4.2424   4.2896
     4.3075   4.5363   4.7074   4.7185   4.7282   4.7469   5.0637   5.2833
     5.3136   5.3166   5.4129   5.5869   5.6528   5.6604   5.7516   5.8039
     5.9003   5.9598   6.0659   6.2015   6.3398   6.3709   6.6071   6.8197
     6.8447   6.8805   6.9997   7.1153   7.1834   7.2318   7.2595   7.3809
     7.5036   7.5044   7.7438   8.0506   8.1537   8.2184   8.6536  10.2987
    10.4435  10.8562

          k = 0.0360 0.0803 0.0000 (  8397 PWs)   bands (ev):

   -45.4146 -45.3814 -45.3613 -45.3099 -45.2709 -45.2580 -45.2552 -45.2482
   -45.2460 -45.2126 -45.1906 -45.1523 -45.0946 -45.0682 -45.0629 -45.0430
   -45.0394 -45.0234 -44.9904 -44.9815 -44.9318 -44.9249 -44.8959 -44.8942
   -44.8751 -44.8734 -44.8383 -44.8373 -44.6411 -44.6248 -44.6211 -44.6203
   -44.6153 -44.6136 -44.6091 -44.6059  -0.2386   0.9014   1.2667   1.3754
     1.7541   1.8088   1.8858   2.0788   2.1305   2.1845   2.2293   2.5023
     2.6060   2.7369   2.8771   3.0461   3.1961   3.2563   3.3011   3.3084
     3.5758   3.6258   3.6436   3.7250   4.0491   4.1356   4.1455   4.1617
     4.2478   4.3531   4.3900   4.4709   4.5139   4.5678   4.8069   4.9046
     4.9743   5.0392   5.0434   5.0471   5.2087   5.5288   5.5332   5.6587
     5.7062   5.7526   5.8834   5.9597   6.0520   6.1176   6.3084   6.5229
     6.5766   6.8831   6.9566   6.9849   7.0530   7.1572   7.1644   7.1968
     7.3311   7.3824   7.3837   7.4941   7.9205   8.2283   8.7463   9.8594
    10.4128  11.4285

          k = 0.0360 0.1100 0.0000 (  8386 PWs)   bands (ev):

   -45.3994 -45.3714 -45.3294 -45.3194 -45.2906 -45.2650 -45.2616 -45.2545
   -45.2435 -45.2187 -45.1763 -45.1666 -45.0801 -45.0583 -45.0534 -45.0311
   -45.0101 -45.0018 -44.9966 -44.9881 -44.9735 -44.9628 -44.9018 -44.8996
   -44.8615 -44.8599 -44.8521 -44.8507 -44.6347 -44.6305 -44.6202 -44.6191
   -44.6176 -44.6142 -44.6078 -44.6065   0.2279   0.5278   1.3536   1.6692
     1.7618   2.0204   2.1063   2.1847   2.2320   2.3123   2.5100   2.7578
     2.7883   2.7939   2.8230   2.9137   3.0713   3.0859   3.2481   3.2893
     3.5604   3.7052   3.7189   3.7821   3.8174   3.8804   3.9371   3.9764
     4.1316   4.1526   4.3180   4.4773   4.5548   4.6392   4.6739   4.6791
     4.7444   4.7465   5.0146   5.0348   5.3062   5.4366   5.5818   5.6932
     5.7610   5.8608   5.8678   5.8847   6.0908   6.2361   6.2430   6.4739
     6.5642   6.5717   6.8112   6.8122   6.9779   7.0325   7.0753   7.1517
     7.2276   7.2719   7.3575   7.3933   7.9648   8.2718   9.1269   9.3990
    10.4151  11.5110

          k = 0.0360-0.0684 0.0000 (  8400 PWs)   bands (ev):

   -45.4271 -45.3926 -45.3870 -45.2917 -45.2750 -45.2568 -45.2561 -45.2489
   -45.2218 -45.2064 -45.1993 -45.1436 -45.1069 -45.0760 -45.0737 -45.0682
   -45.0484 -45.0441 -44.9722 -44.9665 -44.9058 -44.9009 -44.8902 -44.8886
   -44.8835 -44.8817 -44.8299 -44.8290 -44.6451 -44.6224 -44.6216 -44.6203
   -44.6135 -44.6130 -44.6102 -44.6056  -0.5322   1.0719   1.1295   1.1773
     1.5687   1.6951   1.7369   1.9484   2.0088   2.0576   2.0835   2.3192
     2.4652   2.5050   2.8575   3.1760   3.1905   3.2990   3.3217   3.4493
     3.5927   3.7385   3.7681   3.7834   4.0295   4.1624   4.1829   4.1940
     4.2188   4.4898   4.5208   4.5918   4.8010   4.8384   4.8976   4.9259
     5.0621   5.1084   5.1127   5.3451   5.3527   5.4096   5.4550   5.5845
     5.8351   5.8403   5.9760   5.9992   6.0672   6.2006   6.3192   6.6748
     6.6784   6.9432   6.9627   7.0358   7.1221   7.1644   7.2027   7.3110
     7.3770   7.4167   7.6459   7.8631   7.8965   8.1715   8.5035  10.2198
    10.4149  10.9593

          k = 0.0360-0.0387 0.0000 (  8411 PWs)   bands (ev):

   -45.4508 -45.4379 -45.4248 -45.2836 -45.2596 -45.2586 -45.2575 -45.2457
   -45.2166 -45.1944 -45.1683 -45.1305 -45.1267 -45.1182 -45.1054 -45.0898
   -45.0812 -45.0724 -44.9270 -44.9264 -44.9001 -44.8984 -44.8798 -44.8771
   -44.8534 -44.8519 -44.8139 -44.8126 -44.6535 -44.6248 -44.6198 -44.6167
   -44.6135 -44.6107 -44.6087 -44.6059  -1.1120   0.5828   0.9899   1.0471
     1.2346   1.4069   1.4887   1.5215   1.6245   1.8281   1.9048   1.9719
     2.0913   2.1868   2.3420   3.2549   3.2951   3.3503   3.5081   3.6823
     3.7868   3.8127   3.8172   3.8309   4.0464   4.2053   4.2794   4.3679
     4.3826   4.4645   4.6167   4.7596   4.8098   4.8466   4.8896   5.4288
     5.4865   5.5079   5.5182   5.8107   5.8651   5.9059   5.9984   6.0163
     6.0262   6.0918   6.1610   6.3226   6.6454   6.7354   6.7691   6.8094
     6.8889   6.9718   7.0178   7.1834   7.2397   7.2669   7.3154   7.3837
     7.5828   7.6050   7.6613   7.9340   7.9567   8.6466   9.2122   9.9064
    10.3012  10.4992

          k = 0.0360-0.0089 0.0000 (  8406 PWs)   bands (ev):

   -45.4626 -45.4558 -45.4492 -45.2880 -45.2625 -45.2623 -45.2622 -45.2250
   -45.2108 -45.1984 -45.1423 -45.1410 -45.1359 -45.1296 -45.1195 -45.0965
   -45.0924 -45.0884 -44.9080 -44.9065 -44.8951 -44.8928 -44.8840 -44.8809
   -44.8269 -44.8265 -44.8070 -44.8057 -44.6577 -44.6261 -44.6182 -44.6166
   -44.6150 -44.6084 -44.6072 -44.6058  -1.3880   0.3095   0.7882   0.9922
     1.1103   1.2313   1.3061   1.3675   1.4281   1.7564   1.8027   1.8368
     1.9361   1.9809   2.0517   3.2748   3.2900   3.3123   3.7051   3.7060
     3.7156   3.7158   3.7380   3.9305   4.1680   4.2606   4.3542   4.3842
     4.4016   4.4600   4.5579   4.6716   4.8577   4.9434   4.9900   5.6612
     5.7459   5.7757   5.8049   5.9448   6.0127   6.0330   6.0436   6.1183
     6.5219   6.6482   6.6853   6.8043   6.8324   7.0085   7.0093   7.0949
     7.1555   7.2166   7.2292   7.3017   7.3231   7.3694   7.5214   7.5771
     7.5853   7.6693   7.6802   7.8944   8.4468   8.7320   9.2640   9.4018
     9.7787  10.6178

          k = 0.0721 0.0416 0.0000 (  8360 PWs)   bands (ev):

   -45.4168 -45.4168 -45.3522 -45.2729 -45.2646 -45.2646 -45.2605 -45.2502
   -45.2502 -45.2404 -45.1718 -45.1438 -45.0976 -45.0976 -45.0669 -45.0669
   -45.0338 -45.0163 -44.9454 -44.9454 -44.9414 -44.9414 -44.9238 -44.9182
   -44.8582 -44.8556 -44.8309 -44.8289 -44.6430 -44.6280 -44.6217 -44.6162
   -44.6124 -44.6124 -44.6090 -44.6090  -0.3912   0.6027   1.2055   1.5277
     1.6335   1.8567   1.8567   1.9340   1.9455   1.9455   2.3140   2.3140
     2.4610   2.8721   2.8721   3.0843   3.2447   3.2447   3.3424   3.4275
     3.5569   3.5569   3.8021   3.8340   4.0658   4.1787   4.1787   4.4272
     4.4272   4.4505   4.4536   4.8152   4.8285   4.8507   4.8507   4.8545
     4.9653   4.9720   4.9749   4.9749   5.0737   5.4592   5.4915   5.6366
     5.6366   5.8191   5.9023   5.9176   6.0575   6.0576   6.4331   6.5282
     6.5598   6.5916   6.5916   6.6410   6.7602   6.9695   7.2269   7.2269
     7.3857   7.3973   7.6666   7.6666   8.6006   9.5249   9.6426   9.6427
    10.4279  11.1872

          k = 0.0721 0.0714 0.0000 (  8382 PWs)   bands (ev):

   -45.4065 -45.3865 -45.3159 -45.3133 -45.2853 -45.2662 -45.2627 -45.2531
   -45.2451 -45.2332 -45.1697 -45.1608 -45.0873 -45.0683 -45.0618 -45.0432
   -44.9982 -44.9942 -44.9852 -44.9837 -44.9681 -44.9583 -44.9160 -44.9132
   -44.8555 -44.8536 -44.8468 -44.8451 -44.6360 -44.6317 -44.6195 -44.6179
   -44.6171 -44.6130 -44.6085 -44.6071   0.1194   0.4172   1.5613   1.5789
     1.6522   1.9878   2.0174   2.0692   2.1549   2.2363   2.4911   2.6616
     2.7458   2.8336   2.8818   2.8983   3.1592   3.1965   3.2944   3.2945
     3.4972   3.6064   3.7940   3.8248   3.9280   3.9431   4.1175   4.1182
     4.2744   4.3137   4.3175   4.4596   4.5064   4.6511   4.6847   4.7146
     4.7162   4.7590   5.0372   5.0645   5.2705   5.4315   5.5789   5.6284
     5.7609   5.7948   5.8063   5.8880   6.0161   6.1496   6.2428   6.3971
     6.4854   6.5123   6.6917   6.7204   6.8889   6.9469   7.1308   7.2015
     7.2933   7.3139   7.4832   7.5362   8.4216   8.8510   9.0334   9.2989
    10.8917  10.9884

          k = 0.0721 0.1011 0.0000 (  8385 PWs)   bands (ev):

   -45.3869 -45.3486 -45.3440 -45.3345 -45.2969 -45.2636 -45.2590 -45.2577
   -45.2420 -45.1976 -45.1906 -45.1734 -45.0672 -45.0525 -45.0289 -45.0263
   -45.0169 -45.0100 -45.0086 -45.0006 -44.9799 -44.9682 -44.8814 -44.8799
   -44.8748 -44.8734 -44.8583 -44.8572 -44.6332 -44.6272 -44.6254 -44.6187
   -44.6166 -44.6160 -44.6072 -44.6061   0.3582   0.8082   0.9531   1.7972
     1.9374   1.9820   2.2671   2.3338   2.3958   2.3960   2.4631   2.6499
     2.8088   2.8235   2.8617   2.8882   3.0171   3.0975   3.1831   3.2458
     3.4449   3.6286   3.6779   3.7613   3.7699   3.8609   3.8986   3.9019
     3.9440   3.9533   4.3444   4.4715   4.6162   4.6236   4.6277   4.6383
     4.7737   4.8281   4.8797   4.9280   5.3685   5.5263   5.5710   5.6044
     5.8265   5.9341   5.9470   5.9520   6.0160   6.3198   6.3801   6.4079
     6.6755   6.8981   6.9478   6.9927   7.0010   7.0974   7.1021   7.1347
     7.1772   7.1929   7.2110   7.3501   7.3683   7.5377   9.2376   9.6721
     9.8339  12.3404

          k = 0.0721 0.1308 0.0000 (  8373 PWs)   bands (ev):

   -45.4025 -45.3788 -45.3225 -45.3101 -45.2951 -45.2647 -45.2630 -45.2537
   -45.2442 -45.2263 -45.1705 -45.1659 -45.0832 -45.0607 -45.0597 -45.0371
   -45.0033 -44.9925 -44.9911 -44.9800 -44.9779 -44.9669 -44.9092 -44.9066
   -44.8561 -44.8544 -44.8516 -44.8500 -44.6343 -44.6322 -44.6189 -44.6186
   -44.6182 -44.6136 -44.6080 -44.6068   0.2469   0.3967   1.4767   1.6444
     1.6902   2.0262   2.0741   2.1140   2.2018   2.2810   2.5335   2.7274
     2.7859   2.8155   2.8329   2.8814   3.1076   3.1188   3.2805   3.3089
     3.5220   3.6781   3.8050   3.8112   3.8392   3.8853   3.9653   4.0215
     4.2062   4.2219   4.3282   4.4746   4.5563   4.6625   4.6708   4.6727
     4.6979   4.7262   5.0378   5.0490   5.3198   5.3915   5.5872   5.7271
     5.7306   5.8069   5.8319   5.8598   6.1223   6.2049   6.2414   6.3974
     6.4760   6.5766   6.6853   6.7623   6.9433   6.9704   7.1039   7.1795
     7.2668   7.2817   7.4206   7.4694   8.1916   8.5573   9.1429   9.2769
    10.6446  11.2495

          k = 0.0721-0.0476 0.0000 (  8381 PWs)   bands (ev):

   -45.4162 -45.4119 -45.3445 -45.2742 -45.2717 -45.2610 -45.2598 -45.2500
   -45.2494 -45.2485 -45.1702 -45.1461 -45.0970 -45.0929 -45.0668 -45.0631
   -45.0262 -45.0099 -44.9552 -44.9502 -44.9404 -44.9366 -44.9318 -44.9255
   -44.8566 -44.8541 -44.8330 -44.8310 -44.6418 -44.6289 -44.6213 -44.6166
   -44.6129 -44.6114 -44.6099 -44.6086  -0.3081   0.5533   1.2648   1.5392
     1.6905   1.8285   1.9463   1.9513   1.9606   1.9845   2.3410   2.3796
     2.5067   2.8893   2.9233   3.0412   3.2578   3.2650   3.3168   3.4125
     3.5090   3.5104   3.7929   3.8447   4.0466   4.2070   4.2108   4.3823
     4.4209   4.4510   4.4569   4.7027   4.7459   4.8114   4.8508   4.8543
     4.8781   4.9075   4.9233   5.0075   5.0617   5.4775   5.5354   5.6087
     5.6620   5.7553   5.8582   5.9301   5.9871   6.0311   6.3849   6.4700
     6.5511   6.5594   6.6008   6.6682   6.7325   6.9402   7.2153   7.2336
     7.3812   7.3924   7.6537   7.6698   8.6707   9.3896   9.4605   9.9154
    10.1023  11.3214

          k = 0.0721-0.0178 0.0000 (  8390 PWs)   bands (ev):

   -45.4300 -45.4110 -45.3812 -45.2789 -45.2761 -45.2584 -45.2547 -45.2505
   -45.2266 -45.2158 -45.1854 -45.1398 -45.1100 -45.0919 -45.0772 -45.0625
   -45.0623 -45.0398 -44.9595 -44.9552 -44.9093 -44.9078 -44.8999 -44.8956
   -44.8710 -44.8686 -44.8266 -44.8252 -44.6463 -44.6238 -44.6227 -44.6167
   -44.6142 -44.6111 -44.6109 -44.6062  -0.6167   0.8668   1.0435   1.4377
     1.4835   1.5615   1.7865   1.8873   1.9100   1.9576   2.1094   2.2487
     2.3564   2.5684   2.7973   3.1974   3.2206   3.2669   3.3911   3.4345
     3.7148   3.7427   3.7653   3.8292   4.0281   4.1049   4.1410   4.3158
     4.3331   4.5043   4.5983   4.6726   4.7465   4.8225   5.0203   5.1045
     5.1116   5.1379   5.1864   5.2748   5.3237   5.3723   5.5118   5.6137
     5.7944   5.8968   5.9600   6.0697   6.1112   6.3248   6.3370   6.6457
     6.6672   6.8062   6.8237   6.9764   7.1187   7.1444   7.2272   7.3002
     7.3338   7.4493   7.5354   7.5697   8.4205   8.5661   9.0602   9.9227
    10.8178  11.1238

          k = 0.0721 0.0119 0.0000 (  8399 PWs)   bands (ev):

   -45.4317 -45.4077 -45.3876 -45.2807 -45.2766 -45.2579 -45.2554 -45.2506
   -45.2184 -45.2124 -45.1907 -45.1396 -45.1115 -45.0886 -45.0785 -45.0688
   -45.0598 -45.0448 -44.9614 -44.9570 -44.9014 -44.8999 -44.8965 -44.8924
   -44.8758 -44.8736 -44.8263 -44.8251 -44.6467 -44.6228 -44.6227 -44.6179
   -44.6137 -44.6115 -44.6110 -44.6059  -0.6452   0.9493   1.0230   1.3325
     1.4651   1.5885   1.7435   1.8823   1.9103   1.9767   2.0754   2.2414
     2.3568   2.5007   2.7859   3.1912   3.2353   3.2848   3.3706   3.4667
     3.6743   3.7726   3.7983   3.8315   4.0021   4.1171   4.1625   4.2773
     4.2842   4.5314   4.6217   4.6442   4.7353   4.8062   5.0610   5.1270
     5.1341   5.1619   5.1887   5.2833   5.3457   5.4423   5.5045   5.6228
     5.8329   5.8981   6.0052   6.0639   6.1059   6.2605   6.3817   6.6944
     6.6975   6.8740   6.8792   7.0602   7.1119   7.2155   7.2364   7.2619
     7.4530   7.4899   7.5107   7.6177   8.3088   8.4003   8.7387  10.0664
    10.7702  10.8666

     the Fermi energy is     7.3897 ev

!    total energy              =   -2527.98994815 Ry
     Harris-Foulkes estimate   =   -2527.98988017 Ry
     estimated scf accuracy    <       0.00000002 Ry

     The total energy is the sum of the following terms:

     one-electron contribution =   -6768.33055260 Ry
     hartree contribution      =    3454.87059151 Ry
     xc contribution           =    -682.10039576 Ry
     ewald contribution        =    1467.62696860 Ry
     smearing contrib. (-TS)   =      -0.05655990 Ry

     convergence has been achieved in  18 iterations

     Forces acting on atoms (Ry/au):


     negative rho (up, down):  2.095E+00 0.000E+00
     atom    1 type  1   force =     0.00000000    0.00000000   -0.00617544
     atom    2 type  1   force =     0.00000037    0.00000021   -0.00617791
     atom    3 type  1   force =    -0.00000037    0.00000021   -0.00617791
     atom    4 type  1   force =     0.00000000   -0.00000043   -0.00617791
     atom    5 type  1   force =     0.00000000    0.00000000   -0.00000195
     atom    6 type  1   force =    -0.00000037   -0.00000022   -0.00000168
     atom    7 type  1   force =     0.00000037   -0.00000022   -0.00000168
     atom    8 type  1   force =     0.00000000    0.00000043   -0.00000168
     atom    9 type  1   force =     0.00000000   -0.00000000    0.00617627
     atom   10 type  1   force =    -0.00000036   -0.00000021    0.00617996
     atom   11 type  1   force =     0.00000036   -0.00000021    0.00617996
     atom   12 type  1   force =     0.00000000    0.00000042    0.00617996

     Total force =     0.017474     Total SCF correction =     0.000275
 !ASE

     Writing output data file calc.save
     Check: negative starting charge=   -2.195728
     NEW-OLD atomic charge density approx. for the potential
     Check: negative starting charge=   -2.203618

     negative rho (up, down):  2.099E+00 0.000E+00

     total cpu time spent up to now is      812.0 secs

     per-process dynamical memory:    58.3 Mb

     Self-consistent Calculation

     iteration #  1     ecut=    33.07 Ry     beta=0.05
     CG style diagonalization
     c_bands:  1 eigenvalues not converged
     c_bands:  5 eigenvalues not converged
     c_bands:  2 eigenvalues not converged
     c_bands:  3 eigenvalues not converged
     ethr =  8.98E-11,  avg # of iterations = 27.3

     negative rho (up, down):  2.099E+00 0.000E+00

     total cpu time spent up to now is      901.9 secs

     total energy              =   -2527.99392631 Ry
     Harris-Foulkes estimate   =   -2527.99455420 Ry
     estimated scf accuracy    <       0.05650747 Ry

     iteration #  2     ecut=    33.07 Ry     beta=0.05
     CG style diagonalization
     ethr =  2.94E-05,  avg # of iterations =  3.0

     negative rho (up, down):  2.099E+00 0.000E+00

     total cpu time spent up to now is      912.4 secs

     total energy              =   -2527.98940268 Ry
     Harris-Foulkes estimate   =   -2527.99395882 Ry
     estimated scf accuracy    <       0.04567001 Ry

     iteration #  3     ecut=    33.07 Ry     beta=0.05
     CG style diagonalization
     ethr =  2.38E-05,  avg # of iterations =  3.0

     negative rho (up, down):  2.100E+00 0.000E+00

     total cpu time spent up to now is      922.5 secs

     total energy              =   -2527.99102179 Ry
     Harris-Foulkes estimate   =   -2527.99169103 Ry
     estimated scf accuracy    <       0.00224002 Ry

     iteration #  4     ecut=    33.07 Ry     beta=0.05
     CG style diagonalization
     ethr =  1.17E-06,  avg # of iterations =  3.2

     negative rho (up, down):  2.100E+00 0.000E+00

     total cpu time spent up to now is      933.5 secs

     total energy              =   -2527.99096352 Ry
     Harris-Foulkes estimate   =   -2527.99138089 Ry
     estimated scf accuracy    <       0.00334800 Ry

     iteration #  5     ecut=    33.07 Ry     beta=0.05
     CG style diagonalization
     ethr =  1.17E-06,  avg # of iterations =  3.0

     negative rho (up, down):  2.100E+00 0.000E+00

     total cpu time spent up to now is      944.1 secs

     total energy              =   -2527.99120011 Ry
     Harris-Foulkes estimate   =   -2527.99118675 Ry
     estimated scf accuracy    <       0.00016697 Ry

     iteration #  6     ecut=    33.07 Ry     beta=0.05
     CG style diagonalization
     ethr =  8.70E-08,  avg # of iterations =  3.4

     negative rho (up, down):  2.100E+00 0.000E+00

     total cpu time spent up to now is      955.7 secs

     total energy              =   -2527.99110694 Ry
     Harris-Foulkes estimate   =   -2527.99124135 Ry
     estimated scf accuracy    <       0.00081714 Ry

     iteration #  7     ecut=    33.07 Ry     beta=0.05
     CG style diagonalization
     ethr =  8.70E-08,  avg # of iterations =  3.3

     negative rho (up, down):  2.101E+00 0.000E+00

     total cpu time spent up to now is      967.1 secs

     total energy              =   -2527.99120132 Ry
     Harris-Foulkes estimate   =   -2527.99119422 Ry
     estimated scf accuracy    <       0.00017238 Ry

     iteration #  8     ecut=    33.07 Ry     beta=0.05
     CG style diagonalization
     ethr =  8.70E-08,  avg # of iterations =  3.0

     negative rho (up, down):  2.100E+00 0.000E+00

     total cpu time spent up to now is      977.4 secs

     total energy              =   -2527.99119197 Ry
     Harris-Foulkes estimate   =   -2527.99120792 Ry
     estimated scf accuracy    <       0.00031971 Ry

     iteration #  9     ecut=    33.07 Ry     beta=0.05
     CG style diagonalization
     ethr =  8.70E-08,  avg # of iterations =  3.0

     negative rho (up, down):  2.099E+00 0.000E+00

     total cpu time spent up to now is      987.8 secs

     total energy              =   -2527.99117985 Ry
     Harris-Foulkes estimate   =   -2527.99119509 Ry
     estimated scf accuracy    <       0.00016996 Ry

     iteration # 10     ecut=    33.07 Ry     beta=0.05
     CG style diagonalization
     ethr =  8.70E-08,  avg # of iterations =  3.0

     negative rho (up, down):  2.099E+00 0.000E+00

     total cpu time spent up to now is      998.1 secs

     total energy              =   -2527.99118087 Ry
     Harris-Foulkes estimate   =   -2527.99118433 Ry
     estimated scf accuracy    <       0.00003698 Ry

     iteration # 11     ecut=    33.07 Ry     beta=0.05
     CG style diagonalization
     ethr =  1.93E-08,  avg # of iterations =  3.1

     negative rho (up, down):  2.099E+00 0.000E+00

     total cpu time spent up to now is     1008.6 secs

     total energy              =   -2527.99118721 Ry
     Harris-Foulkes estimate   =   -2527.99118387 Ry
     estimated scf accuracy    <       0.00000160 Ry

     iteration # 12     ecut=    33.07 Ry     beta=0.05
     CG style diagonalization
     ethr =  8.35E-10,  avg # of iterations =  3.6

     negative rho (up, down):  2.099E+00 0.000E+00

     total cpu time spent up to now is     1021.1 secs

     total energy              =   -2527.99119100 Ry
     Harris-Foulkes estimate   =   -2527.99118756 Ry
     estimated scf accuracy    <       0.00000035 Ry

     iteration # 13     ecut=    33.07 Ry     beta=0.05
     CG style diagonalization
     ethr =  1.82E-10,  avg # of iterations =  3.0

     negative rho (up, down):  2.099E+00 0.000E+00

     total cpu time spent up to now is     1031.5 secs

     total energy              =   -2527.99119362 Ry
     Harris-Foulkes estimate   =   -2527.99119101 Ry
     estimated scf accuracy    <       0.00000036 Ry

     iteration # 14     ecut=    33.07 Ry     beta=0.05
     CG style diagonalization
     ethr =  1.82E-10,  avg # of iterations =  3.2

     negative rho (up, down):  2.099E+00 0.000E+00

     total cpu time spent up to now is     1042.4 secs

     total energy              =   -2527.99119612 Ry
     Harris-Foulkes estimate   =   -2527.99119366 Ry
     estimated scf accuracy    <       0.00000021 Ry

     iteration # 15     ecut=    33.07 Ry     beta=0.05
     CG style diagonalization
     ethr =  1.07E-10,  avg # of iterations =  3.1

     negative rho (up, down):  2.099E+00 0.000E+00

     total cpu time spent up to now is     1052.8 secs

     End of self-consistent calculation

          k = 0.0000 0.0000 0.0000 (  8427 PWs)   bands (ev):

   -45.4605 -45.4605 -45.4605 -45.2547 -45.2372 -45.2372 -45.2372 -45.1896
   -45.1896 -45.1896 -45.1498 -45.1498 -45.1498 -45.0995 -45.0995 -45.0938
   -45.0938 -45.0938 -44.8836 -44.8835 -44.8835 -44.8808 -44.8808 -44.8808
   -44.7953 -44.7953 -44.7941 -44.7941 -44.6446 -44.6133 -44.5991 -44.5991
   -44.5990 -44.5896 -44.5896 -44.5895  -1.5992   0.0446   0.5482   1.0239
     1.0239   1.0239   1.2636   1.2636   1.2636   1.7671   1.7671   1.7671
     1.7918   1.7918   1.7918   3.3036   3.3037   3.3037   3.5847   3.5847
     3.5847   3.7075   4.0009   4.0009   4.2271   4.3257   4.3257   4.4706
     4.4706   4.6411   4.6411   4.6411   5.1227   5.1227   5.1228   6.0705
     6.0706   6.0706   6.0815   6.0815   6.0899   6.0899   6.0899   6.6281
     6.7503   6.7503   7.1769   7.1770   7.1770   7.2295   7.2295   7.2295
     7.3448   7.3448   7.6870   7.6870   7.6870   7.9863   7.9864   7.9864
     8.0261   8.0262   8.0262   8.1422   8.6018   8.6018   8.6018  10.2687
    10.2688  10.2688

          k = 0.0000 0.0297 0.0000 (  8409 PWs)   bands (ev):

   -45.4508 -45.4507 -45.4431 -45.2517 -45.2329 -45.2328 -45.2321 -45.2001
   -45.2001 -45.1852 -45.1398 -45.1398 -45.1325 -45.1180 -45.1040 -45.0892
   -45.0892 -45.0854 -44.8928 -44.8928 -44.8908 -44.8908 -44.8792 -44.8765
[...]
     7.3548   7.4312   7.6305   7.6305   8.0435   9.5354   9.5355  10.0692
    10.1429  10.2586

          k = 0.0000 0.0892 0.0000 (  8378 PWs)   bands (ev):

   -45.3984 -45.3984 -45.3227 -45.2549 -45.2549 -45.2425 -45.2334 -45.2252
   -45.2157 -45.2156 -45.1548 -45.1347 -45.0885 -45.0884 -45.0581 -45.0581
   -45.0134 -44.9987 -44.9450 -44.9450 -44.9405 -44.9404 -44.9343 -44.9279
   -44.8494 -44.8473 -44.8297 -44.8280 -44.6237 -44.6130 -44.6058 -44.6013
   -44.5950 -44.5949 -44.5929 -44.5928  -0.1624   0.5616   1.3425   1.5842
     1.7717   1.9844   2.0062   2.0062   2.0717   2.0717   2.4613   2.4613
     2.5957   2.9740   2.9740   3.0478   3.3207   3.3207   3.3578   3.4544
     3.5327   3.5327   3.7977   3.8668   4.0488   4.2479   4.2479   4.4006
     4.4006   4.4755   4.4805   4.6910   4.6910   4.7643   4.7960   4.8707
     4.8707   4.9301   4.9462   5.0027   5.1278   5.4672   5.6057   5.6371
     5.6371   5.7586   5.7637   5.9576   5.9642   5.9643   6.3348   6.4037
     6.5377   6.5377   6.5930   6.6396   6.6895   6.8748   7.1991   7.1991
     7.3576   7.3590   7.6483   7.6484   8.6845   9.3196   9.6681   9.6681
    10.4428  10.4428

          k = 0.0360 0.0208 0.0000 (  8399 PWs)   bands (ev):

   -45.4420 -45.4420 -45.4269 -45.2490 -45.2293 -45.2293 -45.2285 -45.2094
   -45.2093 -45.1811 -45.1351 -45.1310 -45.1310 -45.1165 -45.1082 -45.0847
   -45.0847 -45.0764 -44.9011 -44.9011 -44.8999 -44.8998 -44.8752 -44.8725
   -44.8290 -44.8283 -44.8037 -44.8025 -44.6392 -44.6114 -44.6016 -44.5980
   -44.5979 -44.5932 -44.5904 -44.5903  -1.2481   0.4003   0.8873   1.0268
     1.3003   1.3003   1.3718   1.5161   1.5161   1.8056   1.9250   1.9250
     2.0147   2.1063   2.1063   3.3160   3.3160   3.3551   3.6853   3.7341
     3.7378   3.7378   3.7459   3.9273   4.2567   4.3316   4.3316   4.3349
     4.4153   4.5369   4.7186   4.7325   4.8043   4.9863   4.9864   5.6490
     5.6490   5.7272   5.7477   5.9653   5.9949   5.9950   6.0578   6.0880
     6.4879   6.4879   6.5254   6.7315   6.7383   6.9200   6.9200   7.0840
     7.0846   7.0846   7.2216   7.2551   7.2551   7.3409   7.3506   7.5693
     7.6358   7.6446   7.6596   7.6597   7.9489   9.3612   9.3612   9.4105
    10.0774  10.0774

          k = 0.0360 0.0505 0.0000 (  8406 PWs)   bands (ev):

   -45.4290 -45.4061 -45.3979 -45.2498 -45.2429 -45.2235 -45.2232 -45.2217
   -45.1971 -45.1845 -45.1738 -45.1194 -45.1178 -45.0958 -45.0877 -45.0782
   -45.0630 -45.0575 -44.9396 -44.9373 -44.8894 -44.8880 -44.8778 -44.8758
   -44.8669 -44.8645 -44.8144 -44.8135 -44.6332 -44.6094 -44.6030 -44.6011
   -44.5956 -44.5948 -44.5944 -44.5892  -0.8411   0.8004   1.1174   1.2677
     1.2742   1.5750   1.6478   1.7560   1.8325   1.9689   2.0203   2.1561
     2.2588   2.3098   2.5790   3.2792   3.3448   3.3781   3.4338   3.6486
     3.7133   3.8745   3.8847   3.8889   3.9904   4.2252   4.2393   4.3065
     4.3448   4.5775   4.7567   4.7709   4.7846   4.7871   5.0744   5.2955
     5.3296   5.3324   5.4295   5.6003   5.6658   5.6741   5.7633   5.8150
     5.9281   5.9920   6.0791   6.2108   6.3230   6.3538   6.5891   6.8041
     6.8392   6.8813   6.9773   7.0889   7.1658   7.2072   7.2391   7.3657
     7.4788   7.4919   7.7427   8.0415   8.1258   8.2230   8.6474  10.2612
    10.3713  10.7896

          k = 0.0360 0.0803 0.0000 (  8397 PWs)   bands (ev):

   -45.4004 -45.3673 -45.3473 -45.2961 -45.2346 -45.2337 -45.2219 -45.2198
   -45.2123 -45.1990 -45.1772 -45.1392 -45.0896 -45.0622 -45.0578 -45.0379
   -45.0345 -45.0188 -44.9856 -44.9769 -44.9268 -44.9204 -44.8910 -44.8895
   -44.8702 -44.8688 -44.8334 -44.8325 -44.6240 -44.6079 -44.6060 -44.6035
   -44.5993 -44.5974 -44.5920 -44.5892  -0.1660   0.9755   1.3435   1.4063
     1.8099   1.8512   1.9513   2.1631   2.1848   2.2664   2.2898   2.5638
     2.6380   2.7631   2.9479   3.1028   3.2417   3.3081   3.3399   3.3471
     3.5956   3.6779   3.6870   3.7460   4.0478   4.1489   4.1705   4.1714
     4.2889   4.3650   4.4091   4.4790   4.5365   4.5750   4.8498   4.9155
     4.9944   5.0502   5.0811   5.0888   5.2176   5.5244   5.5444   5.6629
     5.7167   5.7629   5.8938   5.9804   6.0680   6.0949   6.3044   6.5296
     6.5675   6.8603   6.9436   6.9772   7.0287   7.1337   7.1527   7.1729
     7.3202   7.3562   7.3710   7.4739   7.9221   8.2223   8.6993   9.7882
    10.3435  11.3872

          k = 0.0360 0.1100 0.0000 (  8386 PWs)   bands (ev):

   -45.3853 -45.3574 -45.3155 -45.3056 -45.2768 -45.2281 -45.2250 -45.2191
   -45.2094 -45.2049 -45.1631 -45.1534 -45.0750 -45.0529 -45.0483 -45.0264
   -45.0052 -44.9968 -44.9919 -44.9836 -44.9685 -44.9584 -44.8969 -44.8949
   -44.8565 -44.8552 -44.8471 -44.8460 -44.6178 -44.6136 -44.6036 -44.6035
   -44.6019 -44.5979 -44.5908 -44.5897   0.3019   0.6024   1.4345   1.7100
     1.8101   2.0906   2.1518   2.2329   2.3165   2.4018   2.5676   2.8183
     2.8512   2.8602   2.8690   2.9655   3.1306   3.1315   3.2681   3.3536
     3.6026   3.7233   3.7404   3.7867   3.8467   3.8821   3.9545   3.9849
     4.1566   4.1860   4.3273   4.4921   4.5589   4.6511   4.6838   4.6903
     4.7576   4.7686   5.0421   5.0525   5.3452   5.4606   5.5604   5.7093
     5.7816   5.8462   5.8732   5.9087   6.1076   6.2455   6.2574   6.4641
     6.5548   6.5799   6.7904   6.8032   6.9581   7.0106   7.0525   7.1270
     7.1992   7.2405   7.3311   7.3814   7.9667   8.2665   9.0685   9.3340
    10.3468  11.5220

          k = 0.0360-0.0684 0.0000 (  8400 PWs)   bands (ev):

   -45.4129 -45.3785 -45.3729 -45.2780 -45.2375 -45.2215 -45.2210 -45.2158
   -45.2083 -45.1930 -45.1859 -45.1305 -45.1019 -45.0695 -45.0686 -45.0631
   -45.0432 -45.0391 -44.9675 -44.9618 -44.9009 -44.8963 -44.8853 -44.8839
   -44.8786 -44.8771 -44.8250 -44.8242 -44.6280 -44.6075 -44.6047 -44.6034
   -44.5974 -44.5968 -44.5930 -44.5891  -0.4603   1.1444   1.1564   1.2504
     1.6084   1.7536   1.7980   2.0304   2.0842   2.1159   2.1447   2.3831
     2.4952   2.5316   2.8993   3.2310   3.2427   3.3369   3.3595   3.4891
     3.6087   3.8013   3.8101   3.8187   4.0290   4.1608   4.1948   4.2127
     4.2511   4.5224   4.5564   4.6206   4.8591   4.8773   4.9094   4.9378
     5.0726   5.1342   5.1419   5.3562   5.3637   5.4215   5.4634   5.5859
     5.8477   5.8591   5.9710   6.0018   6.0841   6.2024   6.2979   6.6701
     6.6720   6.9355   6.9408   7.0088   7.1052   7.1427   7.1808   7.2950
     7.3632   7.3906   7.6436   7.8641   7.8874   8.1646   8.4643  10.1480
    10.3446  10.9191

          k = 0.0360-0.0387 0.0000 (  8411 PWs)   bands (ev):

   -45.4365 -45.4237 -45.4106 -45.2459 -45.2324 -45.2256 -45.2256 -45.2253
   -45.2030 -45.1811 -45.1551 -45.1254 -45.1137 -45.1131 -45.1003 -45.0820
   -45.0743 -45.0662 -44.9223 -44.9216 -44.8952 -44.8938 -44.8749 -44.8725
   -44.8485 -44.8471 -44.8090 -44.8079 -44.6361 -44.6104 -44.6026 -44.5994
   -44.5961 -44.5947 -44.5925 -44.5896  -1.0416   0.6050   1.0560   1.0817
     1.3009   1.4635   1.5544   1.5841   1.6956   1.8785   1.9718   2.0422
     2.1330   2.2108   2.3610   3.3029   3.3281   3.3754   3.5556   3.6934
     3.8121   3.8146   3.8218   3.8346   4.1224   4.2787   4.2804   4.3724
     4.4180   4.5279   4.6642   4.8241   4.8591   4.8891   4.9002   5.4426
     5.4992   5.5188   5.5409   5.8304   5.8796   5.9297   6.0114   6.0410
     6.0488   6.1027   6.1738   6.3260   6.6328   6.7231   6.7524   6.8166
     6.8671   6.9690   6.9966   7.1581   7.2245   7.2416   7.2948   7.3720
     7.5600   7.5931   7.6561   7.9131   7.9445   8.6539   9.2064   9.8709
    10.3130  10.4263

          k = 0.0360-0.0089 0.0000 (  8406 PWs)   bands (ev):

   -45.4482 -45.4415 -45.4349 -45.2501 -45.2309 -45.2304 -45.2299 -45.2116
   -45.1974 -45.1851 -45.1371 -45.1307 -45.1279 -45.1244 -45.1066 -45.0880
   -45.0845 -45.0810 -44.9031 -44.9019 -44.8902 -44.8882 -44.8790 -44.8764
   -44.8220 -44.8217 -44.8021 -44.8010 -44.6402 -44.6118 -44.6008 -44.5992
   -44.5975 -44.5923 -44.5911 -44.5896  -1.3182   0.3303   0.8208   1.0555
     1.1734   1.2941   1.3639   1.4284   1.4929   1.8064   1.8677   1.9102
     1.9790   2.0081   2.0698   3.3148   3.3224   3.3395   3.6984   3.7133
     3.7169   3.7178   3.7584   3.9656   4.2070   4.3423   4.3597   4.4071
     4.4666   4.5006   4.6423   4.6822   4.9061   4.9925   5.0367   5.6763
     5.7566   5.8022   5.8101   5.9745   6.0336   6.0458   6.0734   6.1352
     6.5203   6.6568   6.6956   6.8128   6.8357   6.9891   6.9938   7.0872
     7.1369   7.2043   7.2081   7.2909   7.3054   7.3541   7.5145   7.5652
     7.5831   7.6530   7.6721   7.8964   8.4333   8.7402   9.2325   9.3949
     9.7899  10.6150

          k = 0.0721 0.0416 0.0000 (  8360 PWs)   bands (ev):

   -45.4026 -45.4026 -45.3382 -45.2506 -45.2506 -45.2355 -45.2268 -45.2243
   -45.2166 -45.2166 -45.1586 -45.1308 -45.0925 -45.0924 -45.0610 -45.0610
   -45.0287 -45.0117 -44.9407 -44.9406 -44.9368 -44.9367 -44.9189 -44.9136
   -44.8532 -44.8510 -44.8259 -44.8242 -44.6259 -44.6111 -44.6067 -44.6004
   -44.5954 -44.5953 -44.5925 -44.5924  -0.3193   0.6741   1.2353   1.5771
     1.6719   1.9363   1.9363   1.9742   2.0237   2.0238   2.3752   2.3752
     2.5090   2.9057   2.9058   3.1353   3.2845   3.2845   3.3911   3.4701
     3.6292   3.6292   3.8182   3.8446   4.0658   4.1850   4.1850   4.4487
     4.4500   4.4500   4.4712   4.8611   4.8611   4.8669   4.8987   4.9046
     4.9763   4.9894   4.9894   5.0175   5.0907   5.4696   5.4851   5.6424
     5.6424   5.8630   5.8954   5.9128   6.0478   6.0479   6.4492   6.5366
     6.5486   6.5655   6.5655   6.6509   6.7531   6.9427   7.1986   7.1986
     7.3576   7.3622   7.6447   7.6447   8.5586   9.4547   9.6532   9.6532
    10.4212  10.4212

          k = 0.0721 0.0714 0.0000 (  8382 PWs)   bands (ev):

   -45.3924 -45.3724 -45.3021 -45.2994 -45.2716 -45.2292 -45.2260 -45.2218
   -45.2157 -45.2111 -45.1565 -45.1476 -45.0823 -45.0631 -45.0563 -45.0383
   -44.9932 -44.9893 -44.9808 -44.9791 -44.9631 -44.9538 -44.9111 -44.9085
   -44.8505 -44.8489 -44.8419 -44.8404 -44.6190 -44.6148 -44.6041 -44.6023
   -44.6004 -44.5965 -44.5915 -44.5904   0.1927   0.4907   1.6002   1.6617
     1.6980   2.0295   2.0912   2.1123   2.2381   2.3249   2.5487   2.7213
     2.7888   2.8881   2.9466   2.9562   3.2136   3.2568   3.3138   3.3610
     3.5560   3.6273   3.7937   3.8310   3.9373   3.9658   4.1282   4.1363
     4.2964   4.3250   4.3499   4.4725   4.5097   4.6628   4.6948   4.7266
     4.7275   4.7836   5.0838   5.1023   5.2979   5.4441   5.5621   5.6444
     5.7738   5.8132   5.8176   5.8713   6.0280   6.1607   6.2577   6.4060
     6.4673   6.5051   6.6828   6.6974   6.8729   6.9261   7.1062   7.1738
     7.2640   7.2818   7.4565   7.5233   8.4265   8.8464   8.9773   9.2354
    10.8271  11.0006

          k = 0.0721 0.1011 0.0000 (  8385 PWs)   bands (ev):

   -45.3728 -45.3346 -45.3301 -45.3206 -45.2831 -45.2268 -45.2225 -45.2214
   -45.2077 -45.1842 -45.1773 -45.1601 -45.0622 -45.0474 -45.0241 -45.0212
   -45.0118 -45.0052 -45.0041 -44.9962 -44.9748 -44.9638 -44.8765 -44.8752
   -44.8699 -44.8687 -44.8534 -44.8525 -44.6163 -44.6104 -44.6086 -44.6031
   -44.6007 -44.6000 -44.5902 -44.5893   0.4331   0.8850   1.0309   1.8410
     1.9941   2.0431   2.3180   2.4209   2.4522   2.4849   2.5209   2.7341
     2.8675   2.8810   2.9205   2.9496   3.0424   3.1201   3.2171   3.3093
     3.4622   3.6449   3.6932   3.7891   3.7901   3.8845   3.9019   3.9236
     3.9728   3.9823   4.3521   4.4871   4.6264   4.6328   4.6352   4.6475
     4.7966   4.8424   4.8948   4.9334   5.4119   5.5541   5.5797   5.5961
     5.8000   5.9514   5.9662   5.9715   6.0351   6.3316   6.3874   6.4168
     6.6667   6.8963   6.9276   6.9713   6.9903   7.0727   7.0895   7.1088
     7.1598   7.1794   7.1852   7.3453   7.3459   7.5232   9.1769   9.6039
     9.7647  12.2981

          k = 0.0721 0.1308 0.0000 (  8373 PWs)   bands (ev):

   -45.3884 -45.3648 -45.3086 -45.2962 -45.2813 -45.2278 -45.2262 -45.2190
   -45.2119 -45.2101 -45.1573 -45.1527 -45.0782 -45.0556 -45.0542 -45.0323
   -44.9984 -44.9875 -44.9865 -44.9756 -44.9728 -44.9625 -44.9043 -44.9020
   -44.8511 -44.8497 -44.8466 -44.8453 -44.6174 -44.6153 -44.6034 -44.6026
   -44.6019 -44.5972 -44.5910 -44.5901   0.3207   0.4707   1.5588   1.6860
     1.7354   2.0985   2.1178   2.1587   2.2855   2.3707   2.5907   2.7875
     2.8432   2.8573   2.9114   2.9276   3.1621   3.1778   3.3278   3.3460
     3.5729   3.6986   3.8057   3.8190   3.8649   3.8952   3.9833   4.0300
     4.2325   4.2529   4.3391   4.4877   4.5591   4.6726   4.6841   4.6850
     4.7107   4.7460   5.0720   5.0779   5.3506   5.4142   5.5668   5.7410
     5.7510   5.8299   5.8412   5.8425   6.1377   6.2202   6.2510   6.4063
     6.4615   6.5674   6.6762   6.7400   6.9243   6.9496   7.0804   7.1529
     7.2372   7.2506   7.3939   7.4574   8.1951   8.5526   9.0839   9.2144
    10.5779  11.2613

          k = 0.0721-0.0476 0.0000 (  8381 PWs)   bands (ev):

   -45.4021 -45.3978 -45.3305 -45.2604 -45.2455 -45.2351 -45.2342 -45.2246
   -45.2165 -45.2156 -45.1571 -45.1330 -45.0919 -45.0878 -45.0609 -45.0574
   -45.0212 -45.0053 -44.9504 -44.9455 -44.9356 -44.9319 -44.9268 -44.9209
   -44.8516 -44.8495 -44.8280 -44.8263 -44.6247 -44.6120 -44.6062 -44.6008
   -44.5960 -44.5944 -44.5933 -44.5920  -0.2361   0.6251   1.2960   1.5877
     1.7290   1.9094   1.9861   2.0331   2.0383   2.0640   2.4012   2.4401
     2.5546   2.9255   2.9654   3.0921   3.2921   3.3044   3.3674   3.4607
     3.5770   3.5836   3.8040   3.8531   4.0490   4.2179   4.2188   4.3990
     4.4411   4.4513   4.4757   4.7139   4.7781   4.8216   4.8641   4.9202
     4.9241   4.9371   4.9462   5.0346   5.0941   5.4703   5.5457   5.6102
     5.6687   5.7784   5.8569   5.9391   5.9808   6.0205   6.4005   6.4786
     6.5338   6.5450   6.5748   6.6707   6.7256   6.9146   7.1875   7.2049
     7.3527   7.3576   7.6301   7.6496   8.6263   9.3917   9.3993   9.9268
    10.0961  10.7746

          k = 0.0721-0.0178 0.0000 (  8390 PWs)   bands (ev):

   -45.4158 -45.3969 -45.3671 -45.2651 -45.2387 -45.2228 -45.2210 -45.2174
   -45.2125 -45.2024 -45.1722 -45.1268 -45.1049 -45.0868 -45.0706 -45.0574
   -45.0566 -45.0348 -44.9548 -44.9505 -44.9045 -44.9031 -44.8950 -44.8910
   -44.8660 -44.8640 -44.8217 -44.8205 -44.6291 -44.6079 -44.6068 -44.5997
   -44.5982 -44.5946 -44.5939 -44.5897  -0.5451   0.9375   1.0698   1.5112
     1.5219   1.6154   1.8544   1.9647   1.9866   2.0058   2.1739   2.3130
     2.3977   2.5912   2.8275   3.2524   3.2741   3.3043   3.4235   3.4723
     3.7323   3.8086   3.8264   3.8550   4.0288   4.1220   4.1362   4.3167
     4.3643   4.5376   4.6287   4.7292   4.7949   4.8742   5.0313   5.1237
     5.1331   5.1575   5.2000   5.2903   5.3361   5.3842   5.5149   5.6188
     5.8158   5.9193   5.9737   6.0562   6.1069   6.3183   6.3286   6.6476
     6.6551   6.7813   6.8222   6.9715   7.1122   7.1184   7.1995   7.2764
     7.3200   7.4191   7.5097   7.5564   8.3843   8.5723   9.0551   9.8487
    10.7781  11.0603

          k = 0.0721 0.0119 0.0000 (  8399 PWs)   bands (ev):

   -45.4174 -45.3935 -45.3735 -45.2670 -45.2391 -45.2225 -45.2210 -45.2176
   -45.2047 -45.1989 -45.1774 -45.1266 -45.1065 -45.0835 -45.0718 -45.0637
   -45.0542 -45.0397 -44.9567 -44.9523 -44.8965 -44.8953 -44.8916 -44.8877
   -44.8708 -44.8690 -44.8214 -44.8204 -44.6295 -44.6080 -44.6057 -44.6009
   -44.5976 -44.5952 -44.5937 -44.5894  -0.5737   1.0200   1.0489   1.4051
     1.5036   1.6440   1.8083   1.9603   1.9858   2.0288   2.1397   2.3061
     2.3942   2.5243   2.8159   3.2482   3.2892   3.3209   3.4030   3.5032
     3.6918   3.8376   3.8498   3.8591   4.0019   4.1422   4.1584   4.2778
     4.3193   4.5674   4.6529   4.6956   4.7817   4.8588   5.0722   5.1385
     5.1587   5.1832   5.2049   5.2951   5.3597   5.4538   5.5103   5.6281
     5.8579   5.9208   6.0191   6.0483   6.0995   6.2661   6.3621   6.6811
     6.6987   6.8550   6.8707   7.0488   7.0861   7.1892   7.2253   7.2394
     7.4403   7.4639   7.4985   7.6023   8.3136   8.3646   8.7334   9.9928
    10.7307  10.8007

     the Fermi energy is     7.3703 ev

!    total energy              =   -2527.99122202 Ry
     Harris-Foulkes estimate   =   -2527.99119615 Ry
     estimated scf accuracy    <       0.00000005 Ry

     The total energy is the sum of the following terms:

     one-electron contribution =   -6666.61057296 Ry
     hartree contribution      =    3404.09820287 Ry
     xc contribution           =    -682.01374073 Ry
     ewald contribution        =    1416.59089462 Ry
     smearing contrib. (-TS)   =      -0.05600582 Ry

     convergence has been achieved in  15 iterations

     Forces acting on atoms (Ry/au):


     negative rho (up, down):  2.099E+00 0.000E+00
     atom    1 type  1   force =     0.00000000    0.00000000   -0.00077998
     atom    2 type  1   force =    -0.00000081   -0.00000047   -0.00077884
     atom    3 type  1   force =     0.00000081   -0.00000047   -0.00077884
     atom    4 type  1   force =     0.00000000    0.00000094   -0.00077884
     atom    5 type  1   force =     0.00000000    0.00000000    0.00001227
     atom    6 type  1   force =     0.00000083    0.00000048    0.00001230
     atom    7 type  1   force =    -0.00000083    0.00000048    0.00001230
     atom    8 type  1   force =     0.00000000   -0.00000095    0.00001230
     atom    9 type  1   force =     0.00000000   -0.00000000    0.00076846
     atom   10 type  1   force =     0.00000080    0.00000046    0.00076628
     atom   11 type  1   force =    -0.00000080    0.00000046    0.00076628
     atom   12 type  1   force =     0.00000000   -0.00000092    0.00076628

     Total force =     0.002187     Total SCF correction =     0.000781
     SCF correction compared to forces is large: reduce conv_thr to get better values
 !ASE

     Writing output data file calc.save
 
     init_run     :     64.36s CPU     64.40s WALL (       1 calls)
     electrons    :    964.78s CPU    973.75s WALL (       3 calls)
     update_pot   :      0.80s CPU      0.82s WALL (       2 calls)
     forces       :      4.47s CPU      4.48s WALL (       3 calls)

     Called by init_run:
     wfcinit      :     61.04s CPU     61.06s WALL (       1 calls)
     potinit      :      0.64s CPU      0.65s WALL (       1 calls)

     Called by electrons:
     c_bands      :    826.20s CPU    834.43s WALL (      69 calls)
     sum_band     :     83.39s CPU     83.89s WALL (      69 calls)
     v_of_rho     :      2.81s CPU      2.86s WALL (      72 calls)
     newd         :     42.60s CPU     42.66s WALL (      72 calls)
     mix_rho      :     12.03s CPU     12.08s WALL (      69 calls)

     Called by c_bands:
     init_us_2    :      1.26s CPU      1.29s WALL (    2556 calls)
     ccgdiagg     :    688.02s CPU    695.52s WALL (    1286 calls)
     wfcrot       :    197.82s CPU    198.54s WALL (    1250 calls)

     Called by *cgdiagg:
     h_psi        :    596.64s CPU    601.27s WALL (  398493 calls)
     s_psi        :     96.77s CPU     97.47s WALL (  795736 calls)
     cdiaghg      :      6.31s CPU      6.32s WALL (    1250 calls)

     Called by h_psi:
     add_vuspsi   :     52.01s CPU     52.75s WALL (  398493 calls)

     General routines
     calbec       :    148.03s CPU    148.23s WALL (  797032 calls)
     fft          :      2.62s CPU      2.69s WALL (    1175 calls)
     ffts         :      7.13s CPU      7.13s WALL (   15079 calls)
     fftw         :    477.49s CPU    480.31s WALL ( 1192506 calls)
     interpolate  :      0.40s CPU      0.39s WALL (     141 calls)
     davcio       :      0.00s CPU      0.02s WALL (      18 calls)
 
     Parallel routines
     fft_scatter  :    193.23s CPU    192.83s WALL ( 1208760 calls)
 
     PWSCF        : 17m24.13s CPU    17m34.48s WALL

 
   This run was terminated on:  13:42:23  20Sep2017            

=------------------------------------------------------------------------------=
   JOB DONE.
=------------------------------------------------------------------------------=
